                         Program Version 4.0.0 -  RELEASE  -
|  1> #
|  2> !wB97X-D3 def2-TZVP def2/J RIJCOSX Grid5 FinalGrid6 TightSCF
|  3> %pal
|  4>  nprocs 24
|  5> end
|  6> %tddft
|  7>   Mode sTDDFT
|  8>   nroots 2
|  9>   Ethresh 10.0
| 10>   maxcore 5000
| 11>   triplets true
| 12> end
| 13> * xyz 0 1
| 14> C 4.34400260 3.07660043 1.02212692
| 15> C 3.86757934 1.81853043 0.66245115
| 16> C 4.78822418 0.80665791 0.32975699
| 17> C 6.17748074 1.11091882 0.38538519
| 18> C 6.66003216 2.37984035 0.74066048
| 19> C 5.72109375 3.35829006 1.05720890
| 20> C 4.68549538 -0.59223718 -0.05635589
| 21> C 6.02582189 -1.06108086 -0.19443589
| 22> N 6.90175310 -0.02170654 0.05725778
| 23> C 6.34518082 -2.38880385 -0.51449911
| 24> C 5.28632758 -3.27810332 -0.68561334
| 25> C 3.95979055 -2.84906677 -0.55466739
| 26> C 3.62159622 -1.51415753 -0.25965730
| 27> H 3.15952298 -3.56886167 -0.71093675
| 28> H 7.91186946 -0.09007316 0.03916637
| 29> H 5.48800885 -4.31776107 -0.92701084
| 30> H 2.79874263 1.62756202 0.63712337
| 31> H 7.72629340 2.58746038 0.77197707
| 32> H 6.05685122 4.35322245 1.33751834
| 33> H 3.63744648 3.86122516 1.27877628
| 34> S -2.81317253 0.11511646 -0.09292858
| 35> C -4.06008462 -1.07574075 0.30638654
| 36> N -3.56659191 -2.28419191 0.56188405
| 37> N -2.20712547 -2.35432045 0.46353530
| 38> C -1.64677629 -1.19572261 0.13040107
| 39> C -0.22133857 -1.02113511 -0.03309067
| 40> N 0.34786530 0.12885967 -0.36984721
| 41> N 1.71012620 0.05150505 -0.46391864
| 42> C 2.20260976 -1.14874747 -0.19688173
| 43> S 0.93710276 -2.33859003 0.19706917
| 44> C -5.62710824 2.73607668 -0.49992955
| 45> N -5.11878036 1.53511792 -0.24702106
| 46> C -5.99440391 0.53198139 0.07484174
| 47> C -7.40166029 0.78488517 0.13232093
| 48> N -7.90363091 2.03697669 -0.13364819
| 49> C -7.02662523 2.98485016 -0.44210721
| 50> C -8.28773531 -0.27608064 0.46936288
| 51> C -7.78467786 -1.53454549 0.73675946
| 52> C -6.39948879 -1.78930636 0.68156887
| 53> C -5.49023985 -0.78356905 0.35620146
| 54> H -6.02754829 -2.78751099 0.89594566
| 55> H -8.46089537 -2.34552657 0.99427976
| 56> H -7.41606137 3.98732850 -0.65618363
| 57> H -4.92821712 3.53988028 -0.75770012
| 58> H 7.37774507 -2.71144466 -0.61382641
| 59> H -9.35640014 -0.08430194 0.51309379
| 60> *
| 61> $new_job
| 62> #
| 63> !wB97X-D3 def2-TZVP def2/J RIJCOSX Grid5 FinalGrid6 TightSCF
| 64> %pal
| 65>  nprocs 24
| 66> end
| 67> %elprop
| 68>    dipole     true
| 69>    quadrupole true
| 70> end
| 71> %tddft
| 72>   Mode sTDDFT
| 73>   nroots 2
| 74>   Ethresh 10.0
| 75>   maxcore 5000
| 76> end
| 77> * xyz 0 1
| 78> C 4.34400260 3.07660043 1.02212692
| 79> C 3.86757934 1.81853043 0.66245115
| 80> C 4.78822418 0.80665791 0.32975699
| 81> C 6.17748074 1.11091882 0.38538519
| 82> C 6.66003216 2.37984035 0.74066048
| 83> C 5.72109375 3.35829006 1.05720890
| 84> C 4.68549538 -0.59223718 -0.05635589
| 85> C 6.02582189 -1.06108086 -0.19443589
| 86> N 6.90175310 -0.02170654 0.05725778
| 87> C 6.34518082 -2.38880385 -0.51449911
| 88> C 5.28632758 -3.27810332 -0.68561334
| 89> C 3.95979055 -2.84906677 -0.55466739
| 90> C 3.62159622 -1.51415753 -0.25965730
| 91> H 3.15952298 -3.56886167 -0.71093675
| 92> H 7.91186946 -0.09007316 0.03916637
| 93> H 5.48800885 -4.31776107 -0.92701084
| 94> H 2.79874263 1.62756202 0.63712337
| 95> H 7.72629340 2.58746038 0.77197707
| 96> H 6.05685122 4.35322245 1.33751834
| 97> H 3.63744648 3.86122516 1.27877628
| 98> S -2.81317253 0.11511646 -0.09292858
| 99> C -4.06008462 -1.07574075 0.30638654
|100> N -3.56659191 -2.28419191 0.56188405
|101> N -2.20712547 -2.35432045 0.46353530
|102> C -1.64677629 -1.19572261 0.13040107
|103> C -0.22133857 -1.02113511 -0.03309067
|104> N 0.34786530 0.12885967 -0.36984721
|105> N 1.71012620 0.05150505 -0.46391864
|106> C 2.20260976 -1.14874747 -0.19688173
|107> S 0.93710276 -2.33859003 0.19706917
|108> C -5.62710824 2.73607668 -0.49992955
|109> N -5.11878036 1.53511792 -0.24702106
|110> C -5.99440391 0.53198139 0.07484174
|111> C -7.40166029 0.78488517 0.13232093
|112> N -7.90363091 2.03697669 -0.13364819
|113> C -7.02662523 2.98485016 -0.44210721
|114> C -8.28773531 -0.27608064 0.46936288
|115> C -7.78467786 -1.53454549 0.73675946
|116> C -6.39948879 -1.78930636 0.68156887
|117> C -5.49023985 -0.78356905 0.35620146
|118> H -6.02754829 -2.78751099 0.89594566
|119> H -8.46089537 -2.34552657 0.99427976
|120> H -7.41606137 3.98732850 -0.65618363
|121> H -4.92821712 3.53988028 -0.75770012
|122> H 7.37774507 -2.71144466 -0.61382641
|123> H -9.35640014 -0.08430194 0.51309379
|124> *
|125>
|126>                          ****END OF INPUT****
 Total Charge           Charge          ....    0
 Multiplicity           Mult            ....    1
 Number of Electrons    NEL             ....  238
Dispersion correction           -0.020691264
FINAL SINGLE POINT ENERGY     -2102.095944725574

CARTESIAN COORDINATES (ANGSTROEM)
---------------------------------
  C      4.344003    3.076600    1.022127
  C      3.867579    1.818530    0.662451
  C      4.788224    0.806658    0.329757
  C      6.177481    1.110919    0.385385
  C      6.660032    2.379840    0.740660
  C      5.721094    3.358290    1.057209
  C      4.685495   -0.592237   -0.056356
  C      6.025822   -1.061081   -0.194436
  N      6.901753   -0.021707    0.057258
  C      6.345181   -2.388804   -0.514499
  C      5.286328   -3.278103   -0.685613
  C      3.959791   -2.849067   -0.554667
  C      3.621596   -1.514158   -0.259657
  H      3.159523   -3.568862   -0.710937
  H      7.911869   -0.090073    0.039166
  H      5.488009   -4.317761   -0.927011
  H      2.798743    1.627562    0.637123
  H      7.726293    2.587460    0.771977
  H      6.056851    4.353222    1.337518
  H      3.637446    3.861225    1.278776
  S     -2.813173    0.115116   -0.092929
  C     -4.060085   -1.075741    0.306387
  N     -3.566592   -2.284192    0.561884
  N     -2.207125   -2.354320    0.463535
  C     -1.646776   -1.195723    0.130401
  C     -0.221339   -1.021135   -0.033091
  N      0.347865    0.128860   -0.369847
  N      1.710126    0.051505   -0.463919
  C      2.202610   -1.148747   -0.196882
  S      0.937103   -2.338590    0.197069
  C     -5.627108    2.736077   -0.499930
  N     -5.118780    1.535118   -0.247021
  C     -5.994404    0.531981    0.074842
  C     -7.401660    0.784885    0.132321
  N     -7.903631    2.036977   -0.133648
  C     -7.026625    2.984850   -0.442107
  C     -8.287735   -0.276081    0.469363
  C     -7.784678   -1.534545    0.736759
  C     -6.399489   -1.789306    0.681569
  C     -5.490240   -0.783569    0.356201
  H     -6.027548   -2.787511    0.895946
  H     -8.460895   -2.345527    0.994280
  H     -7.416061    3.987328   -0.656184
  H     -4.928217    3.539880   -0.757700
  H      7.377745   -2.711445   -0.613826
  H     -9.356400   -0.084302    0.513094

 Multiplicity           Mult            ....    1
 Number of Electrons    NEL             ....  238
 Basis Dimension        Dim             .... 1113

ORBITAL ENERGIES
----------------

  NO   OCC          E(Eh)            E(eV)
   0   2.0000     -89.003045     -2421.8960
   1   2.0000     -89.002104     -2421.8704
   2   2.0000     -14.469570      -393.7370
   3   2.0000     -14.468045      -393.6955
   4   2.0000     -14.466173      -393.6446
   5   2.0000     -14.465324      -393.6215
   6   2.0000     -14.462689      -393.5498
   7   2.0000     -14.461892      -393.5281
   8   2.0000     -14.460408      -393.4877
   9   2.0000     -10.373978      -282.2903
  10   2.0000     -10.370757      -282.2027
  11   2.0000     -10.370292      -282.1900
  12   2.0000     -10.367038      -282.1015
  13   2.0000     -10.353430      -281.7311
  14   2.0000     -10.352930      -281.7176
  15   2.0000     -10.349358      -281.6203
  16   2.0000     -10.349112      -281.6137
  17   2.0000     -10.333359      -281.1850
  18   2.0000     -10.330403      -281.1045
  19   2.0000     -10.324919      -280.9553
  20   2.0000     -10.318862      -280.7905
  21   2.0000     -10.314720      -280.6778
  22   2.0000     -10.312265      -280.6110
  23   2.0000     -10.311647      -280.5942
  24   2.0000     -10.303449      -280.3711
  25   2.0000     -10.297845      -280.2186
  26   2.0000     -10.294571      -280.1295
  27   2.0000     -10.293020      -280.0873
  28   2.0000     -10.287751      -279.9439
  29   2.0000     -10.283471      -279.8275
  30   2.0000     -10.282531      -279.8019
  31   2.0000     -10.276251      -279.6310
  32   2.0000     -10.269826      -279.4562
  33   2.0000      -8.099312      -220.3935
  34   2.0000      -8.097231      -220.3369
  35   2.0000      -6.052371      -164.6934
  36   2.0000      -6.050514      -164.6428
  37   2.0000      -6.048477      -164.5874
  38   2.0000      -6.046423      -164.5315
  39   2.0000      -6.046235      -164.5264
  40   2.0000      -6.044342      -164.4749
  41   2.0000      -1.151557       -31.3355
  42   2.0000      -1.143746       -31.1229
  43   2.0000      -1.117439       -30.4071
  44   2.0000      -1.106728       -30.1156
  45   2.0000      -1.045611       -28.4525
  46   2.0000      -1.001867       -27.2622
  47   2.0000      -0.990110       -26.9423
  48   2.0000      -0.972375       -26.4597
  49   2.0000      -0.962527       -26.1917
  50   2.0000      -0.945528       -25.7291
  51   2.0000      -0.931605       -25.3503
  52   2.0000      -0.911243       -24.7962
  53   2.0000      -0.901251       -24.5243
  54   2.0000      -0.898180       -24.4407
  55   2.0000      -0.882746       -24.0207
  56   2.0000      -0.872866       -23.7519
  57   2.0000      -0.845539       -23.0083
  58   2.0000      -0.839943       -22.8560
  59   2.0000      -0.803807       -21.8727
  60   2.0000      -0.788727       -21.4623
  61   2.0000      -0.775931       -21.1142
  62   2.0000      -0.767475       -20.8841
  63   2.0000      -0.754979       -20.5440
  64   2.0000      -0.726840       -19.7783
  65   2.0000      -0.722221       -19.6526
  66   2.0000      -0.712543       -19.3893
  67   2.0000      -0.697151       -18.9704
  68   2.0000      -0.679666       -18.4947
  69   2.0000      -0.664554       -18.0834
  70   2.0000      -0.661252       -17.9936
  71   2.0000      -0.649022       -17.6608
  72   2.0000      -0.634310       -17.2604
  73   2.0000      -0.627809       -17.0836
  74   2.0000      -0.621760       -16.9190
  75   2.0000      -0.614826       -16.7303
  76   2.0000      -0.598167       -16.2770
  77   2.0000      -0.587176       -15.9779
  78   2.0000      -0.574781       -15.6406
  79   2.0000      -0.569787       -15.5047
  80   2.0000      -0.565074       -15.3764
  81   2.0000      -0.560837       -15.2612
  82   2.0000      -0.560062       -15.2401
  83   2.0000      -0.555245       -15.1090
  84   2.0000      -0.548830       -14.9344
  85   2.0000      -0.543891       -14.8000
  86   2.0000      -0.537528       -14.6269
  87   2.0000      -0.535377       -14.5684
  88   2.0000      -0.529300       -14.4030
  89   2.0000      -0.525800       -14.3077
  90   2.0000      -0.522681       -14.2229
  91   2.0000      -0.517149       -14.0723
  92   2.0000      -0.512453       -13.9446
  93   2.0000      -0.487399       -13.2628
  94   2.0000      -0.479923       -13.0594
  95   2.0000      -0.477719       -12.9994
  96   2.0000      -0.474885       -12.9223
  97   2.0000      -0.469466       -12.7748
  98   2.0000      -0.466919       -12.7055
  99   2.0000      -0.459892       -12.5143
 100   2.0000      -0.444804       -12.1037
 101   2.0000      -0.443234       -12.0610
 102   2.0000      -0.438253       -11.9255
 103   2.0000      -0.433420       -11.7940
 104   2.0000      -0.418226       -11.3805
 105   2.0000      -0.412556       -11.2262
 106   2.0000      -0.394794       -10.7429
 107   2.0000      -0.394095       -10.7239
 108   2.0000      -0.386694       -10.5225
 109   2.0000      -0.382314       -10.4033
 110   2.0000      -0.373957       -10.1759
 111   2.0000      -0.369071       -10.0429
 112   2.0000      -0.363372        -9.8879
 113   2.0000      -0.362153        -9.8547
 114   2.0000      -0.358335        -9.7508
 115   2.0000      -0.340679        -9.2703
 116   2.0000      -0.315786        -8.5930
 117   2.0000      -0.298841        -8.1319
 118   2.0000      -0.288733        -7.8568
 119   0.0000      -0.045363        -1.2344
 120   0.0000      -0.017635        -0.4799
 121   0.0000       0.013507         0.3675
 122   0.0000       0.022389         0.6092
 123   0.0000       0.036894         1.0039

MULLIKEN ATOMIC CHARGES
-----------------------
   0 C :   -0.170969
   1 C :   -0.135496
   2 C :   -0.025524
   3 C :    0.178467
   4 C :   -0.248352
   5 C :   -0.073998
   6 C :   -0.027389
   7 C :    0.193054
   8 N :   -0.301060
   9 C :   -0.228591
  10 C :   -0.097609
  11 C :   -0.276862
  12 C :    0.127162
  13 H :    0.130971
  14 H :    0.236447
  15 H :    0.127094
  16 H :    0.155873
  17 H :    0.112199
  18 H :    0.121937
  19 H :    0.116967
  20 S :    0.111621
  21 C :    0.176390
  22 N :   -0.141792
  23 N :   -0.193541
  24 C :    0.100011
  25 C :    0.112463
  26 N :   -0.170740
  27 N :   -0.191392
  28 C :    0.144288
  29 S :    0.062286
  30 C :   -0.022172
  31 N :   -0.323041
  32 C :    0.185252
  33 C :    0.122843
  34 N :   -0.236075
  35 C :   -0.001130
  36 C :   -0.217839
  37 C :   -0.065835
  38 C :   -0.165876
  39 C :   -0.059055
  40 H :    0.167223
  41 H :    0.137601
  42 H :    0.145604
  43 H :    0.148173
  44 H :    0.120555
  45 H :    0.139859
Sum of atomic charges:   -0.0000000

LOEWDIN ATOMIC CHARGES
----------------------
   0 C :   -0.158410
   1 C :   -0.091528
   2 C :   -0.077759
   3 C :   -0.144643
   4 C :   -0.136921
   5 C :   -0.139778
   6 C :   -0.028350
   7 C :   -0.143350
   8 N :    0.201303
   9 C :   -0.118788
  10 C :   -0.141636
  11 C :   -0.123046
  12 C :   -0.115774
  13 H :    0.145501
  14 H :    0.193363
  15 H :    0.147762
  16 H :    0.154176
  17 H :    0.142369
  18 H :    0.144290
  19 H :    0.143677
  20 S :    0.759147
  21 C :   -0.386677
  22 N :    0.040052
  23 N :    0.038562
  24 C :   -0.463419
  25 C :   -0.458752
  26 N :    0.042893
  27 N :    0.046401
  28 C :   -0.376224
  29 S :    0.736487
  30 C :   -0.188718
  31 N :    0.160515
  32 C :   -0.134164
  33 C :   -0.166531
  34 N :    0.174900
  35 C :   -0.197745
  36 C :   -0.084823
  37 C :   -0.124220
  38 C :   -0.061330
  39 C :   -0.114827
  40 H :    0.162234
  41 H :    0.152020
  42 H :    0.144561
  43 H :    0.146234
  44 H :    0.145535
  45 H :    0.155433

  Mayer bond orders larger than 0.1
B(  0-C ,  1-C ) :   1.5329 B(  0-C ,  5-C ) :   1.3520 B(  0-C , 19-H ) :   0.9877
B(  1-C ,  2-C ) :   1.2725 B(  1-C , 16-H ) :   0.9366 B(  2-C ,  3-C ) :   1.3547
B(  2-C ,  6-C ) :   1.0769 B(  3-C ,  4-C ) :   1.2996 B(  3-C ,  8-N ) :   1.1160
B(  4-C ,  5-C ) :   1.4830 B(  4-C , 17-H ) :   0.9794 B(  5-C , 18-H ) :   0.9802
B(  6-C ,  7-C ) :   1.3235 B(  6-C , 12-C ) :   1.2449 B(  7-C ,  8-N ) :   1.1533
B(  7-C ,  9-C ) :   1.2806 B(  8-N , 14-H ) :   0.9127 B(  9-C , 10-C ) :   1.4674
B(  9-C , 44-H ) :   0.9760 B( 10-C , 11-C ) :   1.4225 B( 10-C , 15-H ) :   0.9808
B( 11-C , 12-C ) :   1.4026 B( 11-C , 13-H ) :   0.9587 B( 12-C , 28-C ) :   0.9508
B( 20-S , 21-C ) :   1.3129 B( 20-S , 24-C ) :   1.3171 B( 21-C , 22-N ) :   1.6913
B( 21-C , 39-C ) :   0.9534 B( 22-N , 23-N ) :   1.1768 B( 23-N , 24-C ) :   1.6955
B( 24-C , 25-C ) :   0.9583 B( 25-C , 26-N ) :   1.7061 B( 25-C , 29-S ) :   1.3005
B( 26-N , 27-N ) :   1.1185 B( 27-N , 28-C ) :   1.6458 B( 28-C , 29-S ) :   1.2911
B( 30-C , 31-N ) :   1.6376 B( 30-C , 35-C ) :   1.2439 B( 30-C , 43-H ) :   0.9603
B( 31-N , 32-C ) :   1.1883 B( 32-C , 33-C ) :   1.3005 B( 32-C , 39-C ) :   1.1560
B( 33-C , 34-N ) :   1.2928 B( 33-C , 36-C ) :   1.2537 B( 34-N , 35-C ) :   1.6102
B( 35-C , 42-H ) :   0.9646 B( 36-C , 37-C ) :   1.5233 B( 36-C , 45-H ) :   0.9742
B( 37-C , 38-C ) :   1.2867 B( 37-C , 41-H ) :   0.9870 B( 38-C , 39-C ) :   1.5209
B( 38-C , 40-H ) :   0.9495

Dispersion correction           -0.020691264
FINAL SINGLE POINT ENERGY     -2102.095944675101

DIPOLE MOMENT
-------------
                                X             Y             Z
Electronic contribution:    -10.95726      -5.95110      -1.38149
Nuclear contribution   :     11.28170       6.24965       1.36072
                        -----------------------------------------
Total Dipole Moment    :      0.32445       0.29855      -0.02077
                        -----------------------------------------
Magnitude (a.u.)       :      0.44139
Magnitude (Debye)      :      1.12193

                             ****ORCA TERMINATED NORMALLY****
TOTAL RUN TIME: 0 days 0 hours 11 minutes 43 seconds 217 msec
