                         Program Version 4.0.0 -  RELEASE  -
|  1> #
|  2> !wB97X-D3 def2-TZVP def2/J RIJCOSX Grid5 FinalGrid6 TightSCF
|  3> %pal
|  4>  nprocs 24
|  5> end
|  6> %tddft
|  7>   Mode sTDDFT
|  8>   nroots 2
|  9>   Ethresh 10.0
| 10>   maxcore 5000
| 11>   triplets true
| 12> end
| 13> * xyz 0 1
| 14> C 4.28948520 2.15326944 2.27863033
| 15> C 3.68051306 1.22439068 1.43895779
| 16> C 4.48500923 0.32007921 0.71953731
| 17> C 5.89762449 0.40092370 0.87354781
| 18> C 6.51349356 1.33146750 1.72449506
| 19> C 5.68692802 2.20569079 2.42547158
| 20> C 4.23336053 -0.74063420 -0.24359051
| 21> C 5.51576521 -1.22998266 -0.63323552
| 22> N 6.49597555 -0.54523645 0.06007162
| 23> C 5.69358447 -2.23590351 -1.59429456
| 24> C 4.54955987 -2.75642700 -2.19556291
| 25> C 3.27690658 -2.29583397 -1.83648900
| 26> C 3.07971467 -1.30546204 -0.85467976
| 27> H 2.40628939 -2.73751348 -2.31602325
| 28> H 7.49320503 -0.68982512 -0.04003630
| 29> H 4.64137180 -3.53187365 -2.95050738
| 30> H 2.59863077 1.20057692 1.34715267
| 31> H 7.59466023 1.37005801 1.82698669
| 32> H 6.12749879 2.94067793 3.09389753
| 33> H 3.67288518 2.85253622 2.83673340
| 34> S -3.14281826 0.28906284 0.77788311
| 35> C -2.10945998 -0.33037386 -0.51882612
| 36> N -2.77210763 -0.61347219 -1.63423303
| 37> N -4.11003009 -0.36807398 -1.54687455
| 38> C -4.49215925 0.10571794 -0.36696680
| 39> C -0.68397241 -0.50384856 -0.36165593
| 40> N -0.02773569 -0.22413964 0.75731480
| 41> N 1.31429452 -0.46757184 0.67189287
| 42> C 1.70596108 -0.92880781 -0.50695358
| 43> S 0.35572000 -1.11801828 -1.65289455
| 44> N -9.04581792 0.35529709 -1.74982512
| 45> C -8.28349333 0.60965570 -0.66984080
| 46> C -6.93070057 0.27719757 -0.99902882
| 47> N -6.91223777 -0.16813163 -2.26641955
| 48> O -8.19417530 -0.11058192 -2.69217576
| 49> C -5.87088724 0.44147558 -0.04012021
| 50> C -6.24911944 0.93601807 1.20252756
| 51> C -7.59749589 1.26462187 1.52271254
| 52> C -8.62523875 1.11412069 0.61796702
| 53> H -7.80796712 1.64595823 2.51836205
| 54> H -5.48878492 1.08069092 1.96755824
| 55> H 6.68538083 -2.58635330 -1.86564594
| 56> H -9.64951652 1.36847822 0.87477998
| 57> *
| 58> $new_job
| 59> #
| 60> !wB97X-D3 def2-TZVP def2/J RIJCOSX Grid5 FinalGrid6 TightSCF
| 61> %pal
| 62>  nprocs 24
| 63> end
| 64> %elprop
| 65>    dipole     true
| 66>    quadrupole true
| 67> end
| 68> %tddft
| 69>   Mode sTDDFT
| 70>   nroots 2
| 71>   Ethresh 10.0
| 72>   maxcore 5000
| 73> end
| 74> * xyz 0 1
| 75> C 4.28948520 2.15326944 2.27863033
| 76> C 3.68051306 1.22439068 1.43895779
| 77> C 4.48500923 0.32007921 0.71953731
| 78> C 5.89762449 0.40092370 0.87354781
| 79> C 6.51349356 1.33146750 1.72449506
| 80> C 5.68692802 2.20569079 2.42547158
| 81> C 4.23336053 -0.74063420 -0.24359051
| 82> C 5.51576521 -1.22998266 -0.63323552
| 83> N 6.49597555 -0.54523645 0.06007162
| 84> C 5.69358447 -2.23590351 -1.59429456
| 85> C 4.54955987 -2.75642700 -2.19556291
| 86> C 3.27690658 -2.29583397 -1.83648900
| 87> C 3.07971467 -1.30546204 -0.85467976
| 88> H 2.40628939 -2.73751348 -2.31602325
| 89> H 7.49320503 -0.68982512 -0.04003630
| 90> H 4.64137180 -3.53187365 -2.95050738
| 91> H 2.59863077 1.20057692 1.34715267
| 92> H 7.59466023 1.37005801 1.82698669
| 93> H 6.12749879 2.94067793 3.09389753
| 94> H 3.67288518 2.85253622 2.83673340
| 95> S -3.14281826 0.28906284 0.77788311
| 96> C -2.10945998 -0.33037386 -0.51882612
| 97> N -2.77210763 -0.61347219 -1.63423303
| 98> N -4.11003009 -0.36807398 -1.54687455
| 99> C -4.49215925 0.10571794 -0.36696680
|100> C -0.68397241 -0.50384856 -0.36165593
|101> N -0.02773569 -0.22413964 0.75731480
|102> N 1.31429452 -0.46757184 0.67189287
|103> C 1.70596108 -0.92880781 -0.50695358
|104> S 0.35572000 -1.11801828 -1.65289455
|105> N -9.04581792 0.35529709 -1.74982512
|106> C -8.28349333 0.60965570 -0.66984080
|107> C -6.93070057 0.27719757 -0.99902882
|108> N -6.91223777 -0.16813163 -2.26641955
|109> O -8.19417530 -0.11058192 -2.69217576
|110> C -5.87088724 0.44147558 -0.04012021
|111> C -6.24911944 0.93601807 1.20252756
|112> C -7.59749589 1.26462187 1.52271254
|113> C -8.62523875 1.11412069 0.61796702
|114> H -7.80796712 1.64595823 2.51836205
|115> H -5.48878492 1.08069092 1.96755824
|116> H 6.68538083 -2.58635330 -1.86564594
|117> H -9.64951652 1.36847822 0.87477998
|118> *
|119>
|120>                          ****END OF INPUT****
 Total Charge           Charge          ....    0
 Multiplicity           Mult            ....    1
 Number of Electrons    NEL             ....  232
Dispersion correction           -0.019053339
FINAL SINGLE POINT ENERGY     -2099.809883111057

CARTESIAN COORDINATES (ANGSTROEM)
---------------------------------
  C      4.289485    2.153269    2.278630
  C      3.680513    1.224391    1.438958
  C      4.485009    0.320079    0.719537
  C      5.897624    0.400924    0.873548
  C      6.513494    1.331468    1.724495
  C      5.686928    2.205691    2.425472
  C      4.233361   -0.740634   -0.243591
  C      5.515765   -1.229983   -0.633236
  N      6.495976   -0.545236    0.060072
  C      5.693584   -2.235904   -1.594295
  C      4.549560   -2.756427   -2.195563
  C      3.276907   -2.295834   -1.836489
  C      3.079715   -1.305462   -0.854680
  H      2.406289   -2.737513   -2.316023
  H      7.493205   -0.689825   -0.040036
  H      4.641372   -3.531874   -2.950507
  H      2.598631    1.200577    1.347153
  H      7.594660    1.370058    1.826987
  H      6.127499    2.940678    3.093898
  H      3.672885    2.852536    2.836733
  S     -3.142818    0.289063    0.777883
  C     -2.109460   -0.330374   -0.518826
  N     -2.772108   -0.613472   -1.634233
  N     -4.110030   -0.368074   -1.546875
  C     -4.492159    0.105718   -0.366967
  C     -0.683972   -0.503849   -0.361656
  N     -0.027736   -0.224140    0.757315
  N      1.314295   -0.467572    0.671893
  C      1.705961   -0.928808   -0.506954
  S      0.355720   -1.118018   -1.652895
  N     -9.045818    0.355297   -1.749825
  C     -8.283493    0.609656   -0.669841
  C     -6.930701    0.277198   -0.999029
  N     -6.912238   -0.168132   -2.266420
  O     -8.194175   -0.110582   -2.692176
  C     -5.870887    0.441476   -0.040120
  C     -6.249119    0.936018    1.202528
  C     -7.597496    1.264622    1.522713
  C     -8.625239    1.114121    0.617967
  H     -7.807967    1.645958    2.518362
  H     -5.488785    1.080691    1.967558
  H      6.685381   -2.586353   -1.865646
  H     -9.649517    1.368478    0.874780

 Multiplicity           Mult            ....    1
 Number of Electrons    NEL             ....  232
 Basis Dimension        Dim             .... 1070

ORBITAL ENERGIES
----------------

  NO   OCC          E(Eh)            E(eV)
   0   2.0000     -89.018010     -2422.3032
   1   2.0000     -89.012562     -2422.1549
   2   2.0000     -19.383232      -527.4446
   3   2.0000     -14.508950      -394.8086
   4   2.0000     -14.507095      -394.7581
   5   2.0000     -14.480181      -394.0258
   6   2.0000     -14.478928      -393.9917
   7   2.0000     -14.474806      -393.8795
   8   2.0000     -14.473837      -393.8531
   9   2.0000     -14.468805      -393.7162
  10   2.0000     -10.388705      -282.6910
  11   2.0000     -10.385173      -282.5949
  12   2.0000     -10.384068      -282.5648
  13   2.0000     -10.379681      -282.4455
  14   2.0000     -10.352304      -281.7005
  15   2.0000     -10.351845      -281.6880
  16   2.0000     -10.350875      -281.6616
  17   2.0000     -10.337941      -281.3097
  18   2.0000     -10.335944      -281.2553
  19   2.0000     -10.332108      -281.1509
  20   2.0000     -10.329183      -281.0714
  21   2.0000     -10.328455      -281.0516
  22   2.0000     -10.324294      -280.9383
  23   2.0000     -10.308580      -280.5107
  24   2.0000     -10.302699      -280.3507
  25   2.0000     -10.299221      -280.2560
  26   2.0000     -10.298430      -280.2345
  27   2.0000     -10.292195      -280.0649
  28   2.0000     -10.287406      -279.9345
  29   2.0000     -10.286483      -279.9094
  30   2.0000     -10.280778      -279.7542
  31   2.0000     -10.274016      -279.5702
  32   2.0000      -8.114249      -220.7999
  33   2.0000      -8.108738      -220.6500
  34   2.0000      -6.067294      -165.0995
  35   2.0000      -6.063492      -164.9960
  36   2.0000      -6.061832      -164.9508
  37   2.0000      -6.061324      -164.9370
  38   2.0000      -6.057891      -164.8436
  39   2.0000      -6.055838      -164.7877
  40   2.0000      -1.329218       -36.1698
  41   2.0000      -1.164299       -31.6822
  42   2.0000      -1.155421       -31.4406
  43   2.0000      -1.111109       -30.2348
  44   2.0000      -1.041555       -28.3422
  45   2.0000      -1.036597       -28.2072
  46   2.0000      -0.998725       -27.1767
  47   2.0000      -0.984944       -26.8017
  48   2.0000      -0.969499       -26.3814
  49   2.0000      -0.966055       -26.2877
  50   2.0000      -0.951542       -25.8928
  51   2.0000      -0.940879       -25.6026
  52   2.0000      -0.921990       -25.0886
  53   2.0000      -0.905269       -24.6336
  54   2.0000      -0.897850       -24.4318
  55   2.0000      -0.878612       -23.9082
  56   2.0000      -0.850327       -23.1386
  57   2.0000      -0.844522       -22.9806
  58   2.0000      -0.817805       -22.2536
  59   2.0000      -0.792143       -21.5553
  60   2.0000      -0.776114       -21.1191
  61   2.0000      -0.773299       -21.0425
  62   2.0000      -0.756269       -20.5791
  63   2.0000      -0.731347       -19.9010
  64   2.0000      -0.727481       -19.7958
  65   2.0000      -0.716961       -19.5095
  66   2.0000      -0.702990       -19.1293
  67   2.0000      -0.679379       -18.4869
  68   2.0000      -0.668131       -18.1808
  69   2.0000      -0.662653       -18.0317
  70   2.0000      -0.651291       -17.7225
  71   2.0000      -0.629615       -17.1327
  72   2.0000      -0.626711       -17.0537
  73   2.0000      -0.624846       -17.0029
  74   2.0000      -0.620204       -16.8766
  75   2.0000      -0.616082       -16.7644
  76   2.0000      -0.603513       -16.4224
  77   2.0000      -0.581921       -15.8349
  78   2.0000      -0.576893       -15.6981
  79   2.0000      -0.570842       -15.5334
  80   2.0000      -0.561794       -15.2872
  81   2.0000      -0.556487       -15.1428
  82   2.0000      -0.552562       -15.0360
  83   2.0000      -0.547713       -14.9040
  84   2.0000      -0.543771       -14.7968
  85   2.0000      -0.539538       -14.6816
  86   2.0000      -0.533092       -14.5062
  87   2.0000      -0.529689       -14.4136
  88   2.0000      -0.523198       -14.2370
  89   2.0000      -0.522428       -14.2160
  90   2.0000      -0.510156       -13.8821
  91   2.0000      -0.506493       -13.7824
  92   2.0000      -0.501705       -13.6521
  93   2.0000      -0.481205       -13.0943
  94   2.0000      -0.475730       -12.9453
  95   2.0000      -0.471556       -12.8317
  96   2.0000      -0.457280       -12.4432
  97   2.0000      -0.449840       -12.2408
  98   2.0000      -0.445860       -12.1325
  99   2.0000      -0.444979       -12.1085
 100   2.0000      -0.438171       -11.9232
 101   2.0000      -0.429380       -11.6840
 102   2.0000      -0.420461       -11.4413
 103   2.0000      -0.418566       -11.3898
 104   2.0000      -0.407437       -11.0869
 105   2.0000      -0.405680       -11.0391
 106   2.0000      -0.399817       -10.8796
 107   2.0000      -0.394003       -10.7214
 108   2.0000      -0.386725       -10.5233
 109   2.0000      -0.379363       -10.3230
 110   2.0000      -0.374343       -10.1864
 111   2.0000      -0.368170       -10.0184
 112   2.0000      -0.344661        -9.3787
 113   2.0000      -0.324004        -8.8166
 114   2.0000      -0.303696        -8.2640
 115   2.0000      -0.293764        -7.9937
 116   0.0000      -0.057678        -1.5695
 117   0.0000      -0.025423        -0.6918
 118   0.0000       0.008262         0.2248
 119   0.0000       0.037826         1.0293
 120   0.0000       0.049340         1.3426

MULLIKEN ATOMIC CHARGES
-----------------------
   0 C :   -0.174091
   1 C :   -0.129893
   2 C :   -0.025154
   3 C :    0.170562
   4 C :   -0.235414
   5 C :   -0.078774
   6 C :   -0.031427
   7 C :    0.184168
   8 N :   -0.302499
   9 C :   -0.219720
  10 C :   -0.101495
  11 C :   -0.277655
  12 C :    0.127953
  13 H :    0.131620
  14 H :    0.237329
  15 H :    0.129362
  16 H :    0.154204
  17 H :    0.113818
  18 H :    0.122564
  19 H :    0.119020
  20 S :    0.057850
  21 C :    0.105683
  22 N :   -0.193776
  23 N :   -0.089977
  24 C :    0.141834
  25 C :    0.130280
  26 N :   -0.168731
  27 N :   -0.191788
  28 C :    0.158131
  29 S :    0.071597
  30 N :   -0.074151
  31 C :    0.019837
  32 C :    0.018686
  33 N :   -0.041577
  34 O :    0.007702
  35 C :    0.013606
  36 C :   -0.176447
  37 C :   -0.115334
  38 C :   -0.157736
  39 H :    0.144385
  40 H :    0.148251
  41 H :    0.123170
  42 H :    0.154026
Sum of atomic charges:   -0.0000000

LOEWDIN ATOMIC CHARGES
----------------------
   0 C :   -0.157756
   1 C :   -0.092113
   2 C :   -0.078054
   3 C :   -0.144095
   4 C :   -0.135539
   5 C :   -0.138396
   6 C :   -0.027937
   7 C :   -0.142769
   8 N :    0.202098
   9 C :   -0.116218
  10 C :   -0.140401
  11 C :   -0.122160
  12 C :   -0.116630
  13 H :    0.145812
  14 H :    0.193905
  15 H :    0.148454
  16 H :    0.153588
  17 H :    0.142825
  18 H :    0.144744
  19 H :    0.143982
  20 S :    0.733429
  21 C :   -0.452300
  22 N :    0.051992
  23 N :    0.070545
  24 C :   -0.390804
  25 C :   -0.461686
  26 N :    0.045295
  27 N :    0.048062
  28 C :   -0.371691
  29 S :    0.744545
  30 N :    0.041305
  31 C :   -0.231148
  32 C :   -0.187749
  33 N :    0.064011
  34 O :    0.228469
  35 C :   -0.118182
  36 C :   -0.081135
  37 C :   -0.122406
  38 C :   -0.083040
  39 H :    0.153841
  40 H :    0.152001
  41 H :    0.146276
  42 H :    0.157033

  Mayer bond orders larger than 0.1
B(  0-C ,  1-C ) :   1.5382 B(  0-C ,  5-C ) :   1.3532 B(  0-C , 19-H ) :   0.9851
B(  1-C ,  2-C ) :   1.2667 B(  1-C , 16-H ) :   0.9361 B(  2-C ,  3-C ) :   1.3563
B(  2-C ,  6-C ) :   1.0888 B(  3-C ,  4-C ) :   1.3043 B(  3-C ,  8-N ) :   1.1141
B(  4-C ,  5-C ) :   1.4852 B(  4-C , 17-H ) :   0.9769 B(  5-C , 18-H ) :   0.9806
B(  6-C ,  7-C ) :   1.3197 B(  6-C , 12-C ) :   1.2486 B(  7-C ,  8-N ) :   1.1563
B(  7-C ,  9-C ) :   1.2907 B(  8-N , 14-H ) :   0.9124 B(  9-C , 10-C ) :   1.4688
B(  9-C , 41-H ) :   0.9702 B( 10-C , 11-C ) :   1.4239 B( 10-C , 15-H ) :   0.9797
B( 11-C , 12-C ) :   1.4038 B( 11-C , 13-H ) :   0.9588 B( 12-C , 28-C ) :   0.9390
B( 20-S , 21-C ) :   1.3141 B( 20-S , 24-C ) :   1.2984 B( 21-C , 22-N ) :   1.6901
B( 21-C , 25-C ) :   0.9370 B( 22-N , 23-N ) :   1.1431 B( 23-N , 24-C ) :   1.7217
B( 24-C , 35-C ) :   0.9451 B( 25-C , 26-N ) :   1.6994 B( 25-C , 29-S ) :   1.3083
B( 26-N , 27-N ) :   1.1258 B( 27-N , 28-C ) :   1.6370 B( 28-C , 29-S ) :   1.2911
B( 30-N , 31-C ) :   1.6109 B( 30-N , 33-N ) :   0.1971 B( 30-N , 34-O ) :   1.0663
B( 31-C , 32-C ) :   1.1805 B( 31-C , 38-C ) :   1.1423 B( 32-C , 33-N ) :   1.5821
B( 32-C , 35-C ) :   1.1049 B( 33-N , 34-O ) :   1.0355 B( 35-C , 36-C ) :   1.5678
B( 36-C , 37-C ) :   1.2454 B( 36-C , 40-H ) :   0.9499 B( 37-C , 38-C ) :   1.6280
B( 37-C , 39-H ) :   0.9722 B( 38-C , 42-H ) :   0.9692

Dispersion correction           -0.019053339
FINAL SINGLE POINT ENERGY     -2099.809883039867

DIPOLE MOMENT
-------------
                                X             Y             Z
Electronic contribution:    -22.81100      -3.63529      -8.21507
Nuclear contribution   :     24.29192       3.95395       9.52402
                        -----------------------------------------
Total Dipole Moment    :      1.48091       0.31866       1.30895
                        -----------------------------------------
Magnitude (a.u.)       :      2.00200
Magnitude (Debye)      :      5.08867

                             ****ORCA TERMINATED NORMALLY****
TOTAL RUN TIME: 0 days 0 hours 11 minutes 6 seconds 58 msec
