                         Program Version 4.0.0 -  RELEASE  -
|  1> #
|  2> !wB97X-D3 def2-TZVP def2/J RIJCOSX Grid5 FinalGrid6 TightSCF
|  3> %pal
|  4>  nprocs 24
|  5> end
|  6> %tddft
|  7>   Mode sTDDFT
|  8>   nroots 2
|  9>   Ethresh 10.0
| 10>   maxcore 5000
| 11>   triplets true
| 12> end
| 13> * xyz 0 1
| 14> C -5.62217992 0.96708296 2.33945861
| 15> C -4.79258327 0.38976735 1.38180113
| 16> C -5.34833039 -0.49385595 0.43673440
| 17> C -6.74277816 -0.76983095 0.50706522
| 18> C -7.58231207 -0.18396361 1.46683129
| 19> C -7.00001010 0.68983136 2.38134000
| 20> C -4.82364291 -1.28903414 -0.66269658
| 21> C -5.93341826 -2.01845405 -1.18468438
| 22> N -7.07408337 -1.67976504 -0.48167089
| 23> C -5.81982478 -2.94132052 -2.23471847
| 24> C -4.54977180 -3.15127585 -2.76791283
| 25> C -3.44037043 -2.45259548 -2.27635162
| 26> C -3.54156131 -1.50348137 -1.24052772
| 27> H -2.46738174 -2.63119005 -2.72850498
| 28> H -7.99701687 -2.06372342 -0.64333038
| 29> H -4.41477391 -3.86257216 -3.57763124
| 30> H -3.73247751 0.62502137 1.36707635
| 31> H -8.64508726 -0.40888774 1.49647402
| 32> H -7.61827006 1.16289027 3.13968626
| 33> H -5.19819034 1.65054220 3.06994721
| 34> S 2.56316637 -0.88330491 -0.66602275
| 35> C 3.75043091 0.30273919 -0.08198662
| 36> N 3.19292318 1.41369773 0.38735625
| 37> N 1.83120987 1.41394037 0.32417570
| 38> C 1.32481542 0.30362099 -0.19481224
| 39> C -0.08928980 0.04981795 -0.37223664
| 40> N -1.04951997 0.90385465 -0.04445625
| 41> N -2.30486463 0.43347388 -0.30763607
| 42> C -2.33281990 -0.78179932 -0.83217308
| 43> S -0.69963192 -1.46232940 -1.06499584
| 44> S 10.51782856 0.36791833 0.26212478
| 45> C 8.95182053 1.18191169 0.55225568
| 46> S 9.10909488 2.80565446 1.28365341
| 47> C 10.88048148 2.78622666 1.35731140
| 48> C 11.51435036 1.69051494 0.89818286
| 49> C 7.75396271 0.62187035 0.24676815
| 50> S 6.18635928 1.43585998 0.53676924
| 51> C 5.18209303 0.10472884 -0.10362152
| 52> C 5.83914589 -0.99570447 -0.56370490
| 53> S 7.59726794 -1.00434061 -0.48567938
| 54> H 11.39193943 3.65071064 1.76654869
| 55> H 5.32754464 -1.86152765 -0.97359329
| 56> H -6.68700394 -3.47803864 -2.60895637
| 57> H 12.59266018 1.57381917 0.89624339
| 58> *
| 59> $new_job
| 60> #
| 61> !wB97X-D3 def2-TZVP def2/J RIJCOSX Grid5 FinalGrid6 TightSCF
| 62> %pal
| 63>  nprocs 24
| 64> end
| 65> %elprop
| 66>    dipole     true
| 67>    quadrupole true
| 68> end
| 69> %tddft
| 70>   Mode sTDDFT
| 71>   nroots 2
| 72>   Ethresh 10.0
| 73>   maxcore 5000
| 74> end
| 75> * xyz 0 1
| 76> C -5.62217992 0.96708296 2.33945861
| 77> C -4.79258327 0.38976735 1.38180113
| 78> C -5.34833039 -0.49385595 0.43673440
| 79> C -6.74277816 -0.76983095 0.50706522
| 80> C -7.58231207 -0.18396361 1.46683129
| 81> C -7.00001010 0.68983136 2.38134000
| 82> C -4.82364291 -1.28903414 -0.66269658
| 83> C -5.93341826 -2.01845405 -1.18468438
| 84> N -7.07408337 -1.67976504 -0.48167089
| 85> C -5.81982478 -2.94132052 -2.23471847
| 86> C -4.54977180 -3.15127585 -2.76791283
| 87> C -3.44037043 -2.45259548 -2.27635162
| 88> C -3.54156131 -1.50348137 -1.24052772
| 89> H -2.46738174 -2.63119005 -2.72850498
| 90> H -7.99701687 -2.06372342 -0.64333038
| 91> H -4.41477391 -3.86257216 -3.57763124
| 92> H -3.73247751 0.62502137 1.36707635
| 93> H -8.64508726 -0.40888774 1.49647402
| 94> H -7.61827006 1.16289027 3.13968626
| 95> H -5.19819034 1.65054220 3.06994721
| 96> S 2.56316637 -0.88330491 -0.66602275
| 97> C 3.75043091 0.30273919 -0.08198662
| 98> N 3.19292318 1.41369773 0.38735625
| 99> N 1.83120987 1.41394037 0.32417570
|100> C 1.32481542 0.30362099 -0.19481224
|101> C -0.08928980 0.04981795 -0.37223664
|102> N -1.04951997 0.90385465 -0.04445625
|103> N -2.30486463 0.43347388 -0.30763607
|104> C -2.33281990 -0.78179932 -0.83217308
|105> S -0.69963192 -1.46232940 -1.06499584
|106> S 10.51782856 0.36791833 0.26212478
|107> C 8.95182053 1.18191169 0.55225568
|108> S 9.10909488 2.80565446 1.28365341
|109> C 10.88048148 2.78622666 1.35731140
|110> C 11.51435036 1.69051494 0.89818286
|111> C 7.75396271 0.62187035 0.24676815
|112> S 6.18635928 1.43585998 0.53676924
|113> C 5.18209303 0.10472884 -0.10362152
|114> C 5.83914589 -0.99570447 -0.56370490
|115> S 7.59726794 -1.00434061 -0.48567938
|116> H 11.39193943 3.65071064 1.76654869
|117> H 5.32754464 -1.86152765 -0.97359329
|118> H -6.68700394 -3.47803864 -2.60895637
|119> H 12.59266018 1.57381917 0.89624339
|120> *
|121>
|122>                          ****END OF INPUT****
 Total Charge           Charge          ....    0
 Multiplicity           Mult            ....    1
 Number of Electrons    NEL             ....  274
Dispersion correction           -0.019589552
FINAL SINGLE POINT ENERGY     -3507.911700588036

CARTESIAN COORDINATES (ANGSTROEM)
---------------------------------
  C     -5.622180    0.967083    2.339459
  C     -4.792583    0.389767    1.381801
  C     -5.348330   -0.493856    0.436734
  C     -6.742778   -0.769831    0.507065
  C     -7.582312   -0.183964    1.466831
  C     -7.000010    0.689831    2.381340
  C     -4.823643   -1.289034   -0.662697
  C     -5.933418   -2.018454   -1.184684
  N     -7.074083   -1.679765   -0.481671
  C     -5.819825   -2.941321   -2.234718
  C     -4.549772   -3.151276   -2.767913
  C     -3.440370   -2.452595   -2.276352
  C     -3.541561   -1.503481   -1.240528
  H     -2.467382   -2.631190   -2.728505
  H     -7.997017   -2.063723   -0.643330
  H     -4.414774   -3.862572   -3.577631
  H     -3.732478    0.625021    1.367076
  H     -8.645087   -0.408888    1.496474
  H     -7.618270    1.162890    3.139686
  H     -5.198190    1.650542    3.069947
  S      2.563166   -0.883305   -0.666023
  C      3.750431    0.302739   -0.081987
  N      3.192923    1.413698    0.387356
  N      1.831210    1.413940    0.324176
  C      1.324815    0.303621   -0.194812
  C     -0.089290    0.049818   -0.372237
  N     -1.049520    0.903855   -0.044456
  N     -2.304865    0.433474   -0.307636
  C     -2.332820   -0.781799   -0.832173
  S     -0.699632   -1.462329   -1.064996
  S     10.517829    0.367918    0.262125
  C      8.951821    1.181912    0.552256
  S      9.109095    2.805654    1.283653
  C     10.880481    2.786227    1.357311
  C     11.514350    1.690515    0.898183
  C      7.753963    0.621870    0.246768
  S      6.186359    1.435860    0.536769
  C      5.182093    0.104729   -0.103622
  C      5.839146   -0.995704   -0.563705
  S      7.597268   -1.004341   -0.485679
  H     11.391939    3.650711    1.766549
  H      5.327545   -1.861528   -0.973593
  H     -6.687004   -3.478039   -2.608956
  H     12.592660    1.573819    0.896243

 Multiplicity           Mult            ....    1
 Number of Electrons    NEL             ....  274
 Basis Dimension        Dim             .... 1125

ORBITAL ENERGIES
----------------

  NO   OCC          E(Eh)            E(eV)
   0   2.0000     -89.020993     -2422.3844
   1   2.0000     -89.014606     -2422.2106
   2   2.0000     -88.998667     -2421.7769
   3   2.0000     -88.989470     -2421.5266
   4   2.0000     -88.988439     -2421.4985
   5   2.0000     -88.987499     -2421.4730
   6   2.0000     -14.478378      -393.9767
   7   2.0000     -14.476894      -393.9363
   8   2.0000     -14.475217      -393.8907
   9   2.0000     -14.473487      -393.8436
  10   2.0000     -14.469636      -393.7388
  11   2.0000     -10.390043      -282.7274
  12   2.0000     -10.388680      -282.6904
  13   2.0000     -10.384391      -282.5737
  14   2.0000     -10.381840      -282.5042
  15   2.0000     -10.359785      -281.9041
  16   2.0000     -10.358787      -281.8769
  17   2.0000     -10.358215      -281.8613
  18   2.0000     -10.353260      -281.7265
  19   2.0000     -10.338372      -281.3214
  20   2.0000     -10.334625      -281.2194
  21   2.0000     -10.333805      -281.1971
  22   2.0000     -10.328445      -281.0513
  23   2.0000     -10.325350      -280.9671
  24   2.0000     -10.309111      -280.5252
  25   2.0000     -10.303380      -280.3692
  26   2.0000     -10.300224      -280.2834
  27   2.0000     -10.299598      -280.2663
  28   2.0000     -10.291456      -280.0448
  29   2.0000     -10.286288      -279.9041
  30   2.0000     -10.285294      -279.8771
  31   2.0000     -10.279362      -279.7157
  32   2.0000     -10.272326      -279.5242
  33   2.0000      -8.117627      -220.8918
  34   2.0000      -8.111354      -220.7212
  35   2.0000      -8.094821      -220.2713
  36   2.0000      -8.085373      -220.0142
  37   2.0000      -8.084831      -219.9994
  38   2.0000      -8.083835      -219.9723
  39   2.0000      -6.070633      -165.1903
  40   2.0000      -6.066960      -165.0904
  41   2.0000      -6.064606      -165.0263
  42   2.0000      -6.064291      -165.0177
  43   2.0000      -6.060610      -164.9176
  44   2.0000      -6.058482      -164.8597
  45   2.0000      -6.048921      -164.5995
  46   2.0000      -6.044565      -164.4810
  47   2.0000      -6.040304      -164.3650
  48   2.0000      -6.039727      -164.3493
  49   2.0000      -6.039017      -164.3300
  50   2.0000      -6.038027      -164.3031
  51   2.0000      -6.035342      -164.2300
  52   2.0000      -6.034612      -164.2101
  53   2.0000      -6.033612      -164.1829
  54   2.0000      -6.030299      -164.0928
  55   2.0000      -6.030168      -164.0892
  56   2.0000      -6.029156      -164.0617
  57   2.0000      -1.164167       -31.6786
  58   2.0000      -1.154103       -31.4047
  59   2.0000      -1.110913       -30.2295
  60   2.0000      -1.025629       -27.9088
  61   2.0000      -1.003004       -27.2931
  62   2.0000      -0.996309       -27.1110
  63   2.0000      -0.982311       -26.7300
  64   2.0000      -0.966227       -26.2924
  65   2.0000      -0.957097       -26.0439
  66   2.0000      -0.945445       -25.7269
  67   2.0000      -0.922665       -25.1070
  68   2.0000      -0.912289       -24.8246
  69   2.0000      -0.905371       -24.6364
  70   2.0000      -0.890305       -24.2264
  71   2.0000      -0.879230       -23.9251
  72   2.0000      -0.875355       -23.8196
  73   2.0000      -0.850136       -23.1334
  74   2.0000      -0.847620       -23.0649
  75   2.0000      -0.844119       -22.9696
  76   2.0000      -0.793955       -21.6046
  77   2.0000      -0.772832       -21.0298
  78   2.0000      -0.770093       -20.9553
  79   2.0000      -0.744573       -20.2609
  80   2.0000      -0.733369       -19.9560
  81   2.0000      -0.725759       -19.7489
  82   2.0000      -0.715959       -19.4822
  83   2.0000      -0.695088       -18.9143
  84   2.0000      -0.691538       -18.8177
  85   2.0000      -0.675332       -18.3767
  86   2.0000      -0.660339       -17.9687
  87   2.0000      -0.643132       -17.5005
  88   2.0000      -0.636940       -17.3320
  89   2.0000      -0.628519       -17.1029
  90   2.0000      -0.619892       -16.8681
  91   2.0000      -0.612274       -16.6608
  92   2.0000      -0.603097       -16.4111
  93   2.0000      -0.582715       -15.8565
  94   2.0000      -0.577900       -15.7255
  95   2.0000      -0.572351       -15.5745
  96   2.0000      -0.567063       -15.4306
  97   2.0000      -0.558664       -15.2020
  98   2.0000      -0.557180       -15.1616
  99   2.0000      -0.547765       -14.9054
 100   2.0000      -0.542778       -14.7697
 101   2.0000      -0.537489       -14.6258
 102   2.0000      -0.533431       -14.5154
 103   2.0000      -0.528922       -14.3927
 104   2.0000      -0.528267       -14.3749
 105   2.0000      -0.523177       -14.2364
 106   2.0000      -0.520781       -14.1712
 107   2.0000      -0.518221       -14.1015
 108   2.0000      -0.505574       -13.7574
 109   2.0000      -0.491728       -13.3806
 110   2.0000      -0.484161       -13.1747
 111   2.0000      -0.481734       -13.1087
 112   2.0000      -0.475874       -12.9492
 113   2.0000      -0.474073       -12.9002
 114   2.0000      -0.471633       -12.8338
 115   2.0000      -0.451296       -12.2804
 116   2.0000      -0.448642       -12.2082
 117   2.0000      -0.447324       -12.1723
 118   2.0000      -0.439864       -11.9693
 119   2.0000      -0.434934       -11.8352
 120   2.0000      -0.424050       -11.5390
 121   2.0000      -0.417367       -11.3571
 122   2.0000      -0.411389       -11.1945
 123   2.0000      -0.410218       -11.1626
 124   2.0000      -0.405440       -11.0326
 125   2.0000      -0.398672       -10.8484
 126   2.0000      -0.393481       -10.7072
 127   2.0000      -0.385235       -10.4828
 128   2.0000      -0.382804       -10.4166
 129   2.0000      -0.376860       -10.2549
 130   2.0000      -0.367688       -10.0053
 131   2.0000      -0.359626        -9.7859
 132   2.0000      -0.341223        -9.2851
 133   2.0000      -0.322571        -8.7776
 134   2.0000      -0.303378        -8.2553
 135   2.0000      -0.293315        -7.9815
 136   2.0000      -0.255373        -6.9490
 137   0.0000      -0.044535        -1.2119
 138   0.0000      -0.002683        -0.0730
 139   0.0000       0.022386         0.6092
 140   0.0000       0.024557         0.6682
 141   0.0000       0.027927         0.7599

MULLIKEN ATOMIC CHARGES
-----------------------
   0 C :   -0.179280
   1 C :   -0.129001
   2 C :   -0.029728
   3 C :    0.174301
   4 C :   -0.239837
   5 C :   -0.073782
   6 C :   -0.028583
   7 C :    0.188870
   8 N :   -0.303031
   9 C :   -0.222101
  10 C :   -0.097914
  11 C :   -0.271891
  12 C :    0.125029
  13 H :    0.124375
  14 H :    0.237634
  15 H :    0.127468
  16 H :    0.162332
  17 H :    0.114173
  18 H :    0.123690
  19 H :    0.122023
  20 S :   -0.003554
  21 C :    0.226802
  22 N :   -0.131066
  23 N :   -0.134413
  24 C :    0.070202
  25 C :    0.132197
  26 N :   -0.124725
  27 N :   -0.175143
  28 C :    0.173004
  29 S :   -0.004074
  30 S :    0.014520
  31 C :   -0.087693
  32 S :    0.024799
  33 C :   -0.186356
  34 C :   -0.184804
  35 C :    0.058508
  36 S :    0.047109
  37 C :   -0.149929
  38 C :   -0.160708
  39 S :    0.044706
  40 H :    0.165996
  41 H :    0.170827
  42 H :    0.122789
  43 H :    0.166258
Sum of atomic charges:   -0.0000000

LOEWDIN ATOMIC CHARGES
----------------------
   0 C :   -0.155573
   1 C :   -0.090515
   2 C :   -0.078371
   3 C :   -0.144080
   4 C :   -0.135849
   5 C :   -0.137247
   6 C :   -0.027231
   7 C :   -0.142733
   8 N :    0.202143
   9 C :   -0.116238
  10 C :   -0.141828
  11 C :   -0.124530
  12 C :   -0.117125
  13 H :    0.144145
  14 H :    0.193923
  15 H :    0.147938
  16 H :    0.154830
  17 H :    0.142759
  18 H :    0.145039
  19 H :    0.145189
  20 S :    0.694318
  21 C :   -0.439978
  22 N :    0.049815
  23 N :    0.079239
  24 C :   -0.449134
  25 C :   -0.459873
  26 N :    0.074992
  27 N :    0.056502
  28 C :   -0.370103
  29 S :    0.698235
  30 S :    0.607540
  31 C :   -0.631801
  32 S :    0.616946
  33 C :   -0.421404
  34 C :   -0.422918
  35 C :   -0.633541
  36 S :    0.671496
  37 C :   -0.408940
  38 C :   -0.373710
  39 S :    0.636725
  40 H :    0.137991
  41 H :    0.139255
  42 H :    0.146258
  43 H :    0.137442

  Mayer bond orders larger than 0.1
B(  0-C ,  1-C ) :   1.5407 B(  0-C ,  5-C ) :   1.3516 B(  0-C , 19-H ) :   0.9858
B(  1-C ,  2-C ) :   1.2664 B(  1-C , 16-H ) :   0.9332 B(  2-C ,  3-C ) :   1.3545
B(  2-C ,  6-C ) :   1.0840 B(  3-C ,  4-C ) :   1.3051 B(  3-C ,  8-N ) :   1.1136
B(  4-C ,  5-C ) :   1.4851 B(  4-C , 17-H ) :   0.9756 B(  5-C , 18-H ) :   0.9793
B(  6-C ,  7-C ) :   1.3194 B(  6-C , 12-C ) :   1.2456 B(  7-C ,  8-N ) :   1.1578
B(  7-C ,  9-C ) :   1.2891 B(  8-N , 14-H ) :   0.9126 B(  9-C , 10-C ) :   1.4665
B(  9-C , 42-H ) :   0.9726 B( 10-C , 11-C ) :   1.4177 B( 10-C , 15-H ) :   0.9810
B( 11-C , 12-C ) :   1.4008 B( 11-C , 13-H ) :   0.9623 B( 12-C , 28-C ) :   0.9511
B( 20-S , 21-C ) :   1.2748 B( 20-S , 24-C ) :   1.2767 B( 21-C , 22-N ) :   1.6724
B( 21-C , 36-S ) :  -0.1130 B( 21-C , 37-C ) :   0.9262 B( 22-N , 23-N ) :   1.1222
B( 23-N , 24-C ) :   1.7167 B( 24-C , 25-C ) :   1.0014 B( 25-C , 26-N ) :   1.7024
B( 25-C , 29-S ) :   1.2642 B( 26-N , 27-N ) :   1.0933 B( 27-N , 28-C ) :   1.6461
B( 28-C , 29-S ) :   1.2682 B( 30-S , 31-C ) :   1.1739 B( 30-S , 34-C ) :   1.1245
B( 31-C , 32-S ) :   1.1666 B( 31-C , 35-C ) :   1.5495 B( 32-S , 33-C ) :   1.1273
B( 33-C , 34-C ) :   1.8852 B( 33-C , 40-H ) :   0.9344 B( 34-C , 43-H ) :   0.9337
B( 35-C , 36-S ) :   1.1266 B( 35-C , 39-S ) :   1.0871 B( 36-S , 37-C ) :   1.2255
B( 37-C , 38-C ) :   1.7206 B( 38-C , 39-S ) :   1.1921 B( 38-C , 41-H ) :   0.9316

Dispersion correction           -0.019589552
FINAL SINGLE POINT ENERGY     -3507.911700449236

DIPOLE MOMENT
-------------
                                X             Y             Z
Electronic contribution:     33.99063       2.67915      -2.31358
Nuclear contribution   :    -34.22889      -4.92899       1.43890
                        -----------------------------------------
Total Dipole Moment    :     -0.23826      -2.24984      -0.87468
                        -----------------------------------------
Magnitude (a.u.)       :      2.42562
Magnitude (Debye)      :      6.16542

                             ****ORCA TERMINATED NORMALLY****
TOTAL RUN TIME: 0 days 0 hours 11 minutes 40 seconds 463 msec
