                         Program Version 4.0.0 -  RELEASE  -
|  1> #
|  2> !wB97X-D3 def2-TZVP def2/J RIJCOSX Grid5 FinalGrid6 TightSCF
|  3> %pal
|  4>  nprocs 24
|  5> end
|  6> %tddft
|  7>   Mode sTDDFT
|  8>   nroots 2
|  9>   Ethresh 10.0
| 10>   maxcore 5000
| 11>   triplets true
| 12> end
| 13> * xyz 0 1
| 14> C 6.06098968 1.37641968 -0.26120381
| 15> C 4.78689621 0.83041685 -0.12937917
| 16> C 4.10210474 0.97445415 1.09175117
| 17> C 4.73587691 1.69494853 2.14286462
| 18> C 6.02244741 2.24104770 2.01514387
| 19> C 6.67571155 2.06807295 0.79768044
| 20> C 2.79249968 0.58242210 1.58797354
| 21> C 2.69770616 1.11463529 2.90844924
| 22> N 3.87967847 1.75798293 3.22802189
| 23> C 1.54871669 0.99052722 3.70269743
| 24> C 0.45440128 0.32933811 3.14838196
| 25> C 0.51815026 -0.20270046 1.85443963
| 26> C 1.67332578 -0.11147967 1.05696842
| 27> H -0.34554374 -0.72371345 1.44963738
| 28> H 4.06970743 2.23469886 4.10095840
| 29> H -0.45956413 0.21958253 3.72661464
| 30> H 4.33295128 0.30121078 -0.96157716
| 31> H 6.48692544 2.78382599 2.83404119
| 32> H 7.67289618 2.47798201 0.66103135
| 33> H 6.59449080 1.26707506 -1.20151441
| 34> C -3.24390253 -1.35142668 -2.61438733
| 35> N -2.02955372 -1.18584226 -2.04244251
| 36> C -0.96586232 -1.73060169 -2.67634402
| 37> N -1.06337477 -2.40849738 -3.84657203
| 38> C -2.30620067 -2.51765574 -4.35776822
| 39> N -3.41664520 -2.01872022 -3.78660171
| 40> C 0.36884706 -1.57486500 -2.03319450
| 41> N 0.41920600 -0.91491528 -0.85555971
| 42> C 1.63289105 -0.78436326 -0.26335308
| 43> N 2.76523431 -1.30174348 -0.80820552
| 44> C 2.62640656 -1.94339963 -1.98364681
| 45> N 1.46112707 -2.10634981 -2.63885819
| 46> H 3.53264039 -2.36948752 -2.43996612
| 47> H -2.41999435 -3.05761948 -5.30960315
| 48> C -4.45430753 -0.77797077 -1.96106280
| 49> N -5.56522374 -0.74559303 -2.71369130
| 50> C -6.71025621 -0.21671440 -2.20374200
| 51> C -6.80407130 0.31124214 -0.92867082
| 52> C -5.65900071 0.28790312 -0.09159754
| 53> C -4.45297711 -0.27824715 -0.60923534
| 54> N -5.71925581 0.79899177 1.18544785
| 55> C -4.60628255 0.73294994 1.90309944
| 56> C -3.40929934 0.14669193 1.39920596
| 57> N -3.32754241 -0.35499351 0.17448444
| 58> H -7.58162729 -0.21806634 -2.86601015
| 59> H -4.63367804 1.13976240 2.92162916
| 60> H -2.51375546 0.09066613 2.03077230
| 61> H 1.51128498 1.40439079 4.70669358
| 62> H -7.73499445 0.73752723 -0.56400050
| 63> *
| 64> $new_job
| 65> #
| 66> !wB97X-D3 def2-TZVP def2/J RIJCOSX Grid5 FinalGrid6 TightSCF
| 67> %pal
| 68>  nprocs 24
| 69> end
| 70> %elprop
| 71>    dipole     true
| 72>    quadrupole true
| 73> end
| 74> %tddft
| 75>   Mode sTDDFT
| 76>   nroots 2
| 77>   Ethresh 10.0
| 78>   maxcore 5000
| 79> end
| 80> * xyz 0 1
| 81> C 6.06098968 1.37641968 -0.26120381
| 82> C 4.78689621 0.83041685 -0.12937917
| 83> C 4.10210474 0.97445415 1.09175117
| 84> C 4.73587691 1.69494853 2.14286462
| 85> C 6.02244741 2.24104770 2.01514387
| 86> C 6.67571155 2.06807295 0.79768044
| 87> C 2.79249968 0.58242210 1.58797354
| 88> C 2.69770616 1.11463529 2.90844924
| 89> N 3.87967847 1.75798293 3.22802189
| 90> C 1.54871669 0.99052722 3.70269743
| 91> C 0.45440128 0.32933811 3.14838196
| 92> C 0.51815026 -0.20270046 1.85443963
| 93> C 1.67332578 -0.11147967 1.05696842
| 94> H -0.34554374 -0.72371345 1.44963738
| 95> H 4.06970743 2.23469886 4.10095840
| 96> H -0.45956413 0.21958253 3.72661464
| 97> H 4.33295128 0.30121078 -0.96157716
| 98> H 6.48692544 2.78382599 2.83404119
| 99> H 7.67289618 2.47798201 0.66103135
|100> H 6.59449080 1.26707506 -1.20151441
|101> C -3.24390253 -1.35142668 -2.61438733
|102> N -2.02955372 -1.18584226 -2.04244251
|103> C -0.96586232 -1.73060169 -2.67634402
|104> N -1.06337477 -2.40849738 -3.84657203
|105> C -2.30620067 -2.51765574 -4.35776822
|106> N -3.41664520 -2.01872022 -3.78660171
|107> C 0.36884706 -1.57486500 -2.03319450
|108> N 0.41920600 -0.91491528 -0.85555971
|109> C 1.63289105 -0.78436326 -0.26335308
|110> N 2.76523431 -1.30174348 -0.80820552
|111> C 2.62640656 -1.94339963 -1.98364681
|112> N 1.46112707 -2.10634981 -2.63885819
|113> H 3.53264039 -2.36948752 -2.43996612
|114> H -2.41999435 -3.05761948 -5.30960315
|115> C -4.45430753 -0.77797077 -1.96106280
|116> N -5.56522374 -0.74559303 -2.71369130
|117> C -6.71025621 -0.21671440 -2.20374200
|118> C -6.80407130 0.31124214 -0.92867082
|119> C -5.65900071 0.28790312 -0.09159754
|120> C -4.45297711 -0.27824715 -0.60923534
|121> N -5.71925581 0.79899177 1.18544785
|122> C -4.60628255 0.73294994 1.90309944
|123> C -3.40929934 0.14669193 1.39920596
|124> N -3.32754241 -0.35499351 0.17448444
|125> H -7.58162729 -0.21806634 -2.86601015
|126> H -4.63367804 1.13976240 2.92162916
|127> H -2.51375546 0.09066613 2.03077230
|128> H 1.51128498 1.40439079 4.70669358
|129> H -7.73499445 0.73752723 -0.56400050
|130> *
|131>
|132>                          ****END OF INPUT****
 Total Charge           Charge          ....    0
 Multiplicity           Mult            ....    1
 Number of Electrons    NEL             ....  234
Dispersion correction           -0.023385941
FINAL SINGLE POINT ENERGY     -1508.682638433634

CARTESIAN COORDINATES (ANGSTROEM)
---------------------------------
  C      6.060990    1.376420   -0.261204
  C      4.786896    0.830417   -0.129379
  C      4.102105    0.974454    1.091751
  C      4.735877    1.694949    2.142865
  C      6.022447    2.241048    2.015144
  C      6.675712    2.068073    0.797680
  C      2.792500    0.582422    1.587974
  C      2.697706    1.114635    2.908449
  N      3.879678    1.757983    3.228022
  C      1.548717    0.990527    3.702697
  C      0.454401    0.329338    3.148382
  C      0.518150   -0.202700    1.854440
  C      1.673326   -0.111480    1.056968
  H     -0.345544   -0.723713    1.449637
  H      4.069707    2.234699    4.100958
  H     -0.459564    0.219583    3.726615
  H      4.332951    0.301211   -0.961577
  H      6.486925    2.783826    2.834041
  H      7.672896    2.477982    0.661031
  H      6.594491    1.267075   -1.201514
  C     -3.243903   -1.351427   -2.614387
  N     -2.029554   -1.185842   -2.042443
  C     -0.965862   -1.730602   -2.676344
  N     -1.063375   -2.408497   -3.846572
  C     -2.306201   -2.517656   -4.357768
  N     -3.416645   -2.018720   -3.786602
  C      0.368847   -1.574865   -2.033195
  N      0.419206   -0.914915   -0.855560
  C      1.632891   -0.784363   -0.263353
  N      2.765234   -1.301743   -0.808206
  C      2.626407   -1.943400   -1.983647
  N      1.461127   -2.106350   -2.638858
  H      3.532640   -2.369488   -2.439966
  H     -2.419994   -3.057619   -5.309603
  C     -4.454308   -0.777971   -1.961063
  N     -5.565224   -0.745593   -2.713691
  C     -6.710256   -0.216714   -2.203742
  C     -6.804071    0.311242   -0.928671
  C     -5.659001    0.287903   -0.091598
  C     -4.452977   -0.278247   -0.609235
  N     -5.719256    0.798992    1.185448
  C     -4.606283    0.732950    1.903099
  C     -3.409299    0.146692    1.399206
  N     -3.327542   -0.354994    0.174484
  H     -7.581627   -0.218066   -2.866010
  H     -4.633678    1.139762    2.921629
  H     -2.513755    0.090666    2.030772
  H      1.511285    1.404391    4.706694
  H     -7.734994    0.737527   -0.564000

 Multiplicity           Mult            ....    1
 Number of Electrons    NEL             ....  234
 Basis Dimension        Dim             .... 1169

ORBITAL ENERGIES
----------------

  NO   OCC          E(Eh)            E(eV)
   0   2.0000     -14.471153      -393.7801
   1   2.0000     -14.460881      -393.5006
   2   2.0000     -14.455607      -393.3571
   3   2.0000     -14.446030      -393.0965
   4   2.0000     -14.445495      -393.0819
   5   2.0000     -14.444728      -393.0610
   6   2.0000     -14.444488      -393.0545
   7   2.0000     -14.443261      -393.0211
   8   2.0000     -14.443140      -393.0178
   9   2.0000     -14.442377      -392.9971
  10   2.0000     -10.388141      -282.6757
  11   2.0000     -10.387365      -282.6546
  12   2.0000     -10.387227      -282.6508
  13   2.0000     -10.386780      -282.6387
  14   2.0000     -10.376271      -282.3527
  15   2.0000     -10.373261      -282.2708
  16   2.0000     -10.356277      -281.8086
  17   2.0000     -10.353049      -281.7208
  18   2.0000     -10.351484      -281.6782
  19   2.0000     -10.351225      -281.6712
  20   2.0000     -10.346726      -281.5487
  21   2.0000     -10.334865      -281.2260
  22   2.0000     -10.333814      -281.1974
  23   2.0000     -10.327846      -281.0350
  24   2.0000     -10.310904      -280.5740
  25   2.0000     -10.310354      -280.5590
  26   2.0000     -10.304114      -280.3892
  27   2.0000     -10.299726      -280.2698
  28   2.0000     -10.294707      -280.1332
  29   2.0000     -10.290614      -280.0218
  30   2.0000     -10.288480      -279.9638
  31   2.0000     -10.286969      -279.9226
  32   2.0000     -10.286116      -279.8995
  33   2.0000     -10.282125      -279.7909
  34   2.0000     -10.274557      -279.5849
  35   2.0000      -1.149578       -31.2816
  36   2.0000      -1.136506       -30.9259
  37   2.0000      -1.115811       -30.3628
  38   2.0000      -1.108319       -30.1589
  39   2.0000      -1.073411       -29.2090
  40   2.0000      -1.040895       -28.3242
  41   2.0000      -1.034855       -28.1598
  42   2.0000      -1.026078       -27.9210
  43   2.0000      -1.015908       -27.6443
  44   2.0000      -1.005710       -27.3668
  45   2.0000      -0.975023       -26.5317
  46   2.0000      -0.965149       -26.2631
  47   2.0000      -0.932597       -25.3773
  48   2.0000      -0.905996       -24.6534
  49   2.0000      -0.904888       -24.6233
  50   2.0000      -0.885017       -24.0825
  51   2.0000      -0.854002       -23.2386
  52   2.0000      -0.843303       -22.9474
  53   2.0000      -0.842156       -22.9162
  54   2.0000      -0.824537       -22.4368
  55   2.0000      -0.803968       -21.8771
  56   2.0000      -0.796249       -21.6670
  57   2.0000      -0.785215       -21.3668
  58   2.0000      -0.768640       -20.9158
  59   2.0000      -0.757629       -20.6161
  60   2.0000      -0.732068       -19.9206
  61   2.0000      -0.722784       -19.6680
  62   2.0000      -0.715689       -19.4749
  63   2.0000      -0.696656       -18.9570
  64   2.0000      -0.677268       -18.4294
  65   2.0000      -0.672156       -18.2903
  66   2.0000      -0.658653       -17.9229
  67   2.0000      -0.652789       -17.7633
  68   2.0000      -0.647079       -17.6079
  69   2.0000      -0.634806       -17.2739
  70   2.0000      -0.627506       -17.0753
  71   2.0000      -0.621169       -16.9029
  72   2.0000      -0.614718       -16.7273
  73   2.0000      -0.595598       -16.2070
  74   2.0000      -0.583077       -15.8663
  75   2.0000      -0.575964       -15.6728
  76   2.0000      -0.570186       -15.5156
  77   2.0000      -0.563860       -15.3434
  78   2.0000      -0.561127       -15.2690
  79   2.0000      -0.559290       -15.2191
  80   2.0000      -0.553336       -15.0570
  81   2.0000      -0.551039       -14.9945
  82   2.0000      -0.546534       -14.8719
  83   2.0000      -0.543210       -14.7815
  84   2.0000      -0.535189       -14.5632
  85   2.0000      -0.531298       -14.4573
  86   2.0000      -0.527986       -14.3672
  87   2.0000      -0.526323       -14.3220
  88   2.0000      -0.522643       -14.2218
  89   2.0000      -0.498765       -13.5721
  90   2.0000      -0.494968       -13.4688
  91   2.0000      -0.491085       -13.3631
  92   2.0000      -0.479457       -13.0467
  93   2.0000      -0.472759       -12.8644
  94   2.0000      -0.470446       -12.8015
  95   2.0000      -0.468379       -12.7453
  96   2.0000      -0.458065       -12.4646
  97   2.0000      -0.451850       -12.2955
  98   2.0000      -0.446535       -12.1508
  99   2.0000      -0.442523       -12.0417
 100   2.0000      -0.432326       -11.7642
 101   2.0000      -0.427674       -11.6376
 102   2.0000      -0.421114       -11.4591
 103   2.0000      -0.417098       -11.3498
 104   2.0000      -0.394697       -10.7403
 105   2.0000      -0.383539       -10.4366
 106   2.0000      -0.382083       -10.3970
 107   2.0000      -0.380247       -10.3471
 108   2.0000      -0.377684       -10.2773
 109   2.0000      -0.367854       -10.0098
 110   2.0000      -0.362202        -9.8560
 111   2.0000      -0.358767        -9.7626
 112   2.0000      -0.346173        -9.4198
 113   2.0000      -0.345106        -9.3908
 114   2.0000      -0.335623        -9.1328
 115   2.0000      -0.302989        -8.2447
 116   2.0000      -0.292913        -7.9706
 117   0.0000      -0.046198        -1.2571
 118   0.0000      -0.028686        -0.7806
 119   0.0000      -0.008202        -0.2232
 120   0.0000       0.012906         0.3512
 121   0.0000       0.018860         0.5132

MULLIKEN ATOMIC CHARGES
-----------------------
   0 C :   -0.169727
   1 C :   -0.126436
   2 C :   -0.022655
   3 C :    0.188451
   4 C :   -0.249908
   5 C :   -0.078209
   6 C :   -0.014166
   7 C :    0.188658
   8 N :   -0.301763
   9 C :   -0.230913
  10 C :   -0.071912
  11 C :   -0.249856
  12 C :    0.123752
  13 H :    0.181046
  14 H :    0.236633
  15 H :    0.121947
  16 H :    0.136024
  17 H :    0.114659
  18 H :    0.122812
  19 H :    0.115415
  20 C :    0.204290
  21 N :   -0.229576
  22 C :    0.212399
  23 N :   -0.253931
  24 C :    0.107361
  25 N :   -0.234886
  26 C :    0.215658
  27 N :   -0.277896
  28 C :    0.253158
  29 N :   -0.338234
  30 C :    0.122036
  31 N :   -0.260185
  32 H :    0.155157
  33 H :    0.154966
  34 C :    0.124647
  35 N :   -0.238426
  36 C :   -0.018273
  37 C :   -0.175051
  38 C :    0.146080
  39 C :    0.104053
  40 N :   -0.244142
  41 C :    0.000020
  42 C :    0.013464
  43 N :   -0.213080
  44 H :    0.141331
  45 H :    0.142418
  46 H :    0.106430
  47 H :    0.118794
  48 H :    0.147565
Sum of atomic charges:   -0.0000000

LOEWDIN ATOMIC CHARGES
----------------------
   0 C :   -0.159861
   1 C :   -0.095186
   2 C :   -0.077854
   3 C :   -0.144243
   4 C :   -0.135161
   5 C :   -0.139612
   6 C :   -0.029453
   7 C :   -0.144216
   8 N :    0.200165
   9 C :   -0.117436
  10 C :   -0.150583
  11 C :   -0.101374
  12 C :   -0.074487
  13 H :    0.156403
  14 H :    0.193234
  15 H :    0.142054
  16 H :    0.150481
  17 H :    0.142823
  18 H :    0.144711
  19 H :    0.143129
  20 C :   -0.207279
  21 N :    0.191259
  22 C :   -0.219873
  23 N :    0.139918
  24 C :   -0.225549
  25 N :    0.144701
  26 C :   -0.218174
  27 N :    0.182661
  28 C :   -0.193579
  29 N :    0.126937
  30 C :   -0.227303
  31 N :    0.135031
  32 H :    0.142781
  33 H :    0.142718
  34 C :   -0.130813
  35 N :    0.181689
  36 C :   -0.188908
  37 C :   -0.098214
  38 C :   -0.164126
  39 C :   -0.134614
  40 N :    0.168413
  41 C :   -0.187059
  42 C :   -0.195064
  43 N :    0.200088
  44 H :    0.144561
  45 H :    0.144258
  46 H :    0.141088
  47 H :    0.145063
  48 H :    0.155855

  Mayer bond orders larger than 0.1
B(  0-C ,  1-C ) :   1.5316 B(  0-C ,  5-C ) :   1.3492 B(  0-C , 19-H ) :   0.9894
B(  1-C ,  2-C ) :   1.2710 B(  1-C , 16-H ) :   0.9454 B(  2-C ,  3-C ) :   1.3441
B(  2-C ,  6-C ) :   1.0639 B(  3-C ,  4-C ) :   1.2947 B(  3-C ,  8-N ) :   1.1180
B(  4-C ,  5-C ) :   1.4859 B(  4-C , 17-H ) :   0.9781 B(  5-C , 18-H ) :   0.9810
B(  6-C ,  7-C ) :   1.3100 B(  6-C , 12-C ) :   1.2362 B(  7-C ,  8-N ) :   1.1516
B(  7-C ,  9-C ) :   1.2986 B(  8-N , 14-H ) :   0.9128 B(  9-C , 10-C ) :   1.4675
B(  9-C , 47-H ) :   0.9704 B( 10-C , 11-C ) :   1.3569 B( 10-C , 15-H ) :   0.9808
B( 11-C , 12-C ) :   1.5059 B( 11-C , 13-H ) :   0.9115 B( 12-C , 28-C ) :   0.9561
B( 20-C , 21-N ) :   1.4847 B( 20-C , 25-N ) :   1.4988 B( 20-C , 34-C ) :   0.9988
B( 21-N , 22-C ) :   1.4764 B( 22-C , 23-N ) :   1.4977 B( 22-C , 26-C ) :   1.0366
B( 23-N , 24-C ) :   1.4509 B( 24-C , 25-N ) :   1.4823 B( 24-C , 33-H ) :   0.9640
B( 26-C , 27-N ) :   1.5116 B( 26-C , 31-N ) :   1.4757 B( 27-N , 28-C ) :   1.4587
B( 28-C , 29-N ) :   1.3893 B( 29-N , 30-C ) :   1.4524 B( 30-C , 31-N ) :   1.4720
B( 30-C , 32-H ) :   0.9626 B( 34-C , 35-N ) :   1.5780 B( 34-C , 39-C ) :   1.2034
B( 35-N , 36-C ) :   1.3774 B( 36-C , 37-C ) :   1.5228 B( 36-C , 44-H ) :   0.9824
B( 37-C , 38-C ) :   1.2947 B( 37-C , 48-H ) :   0.9518 B( 38-C , 39-C ) :   1.2855
B( 38-C , 40-N ) :   1.2816 B( 39-C , 43-N ) :   1.3229 B( 40-N , 41-C ) :   1.6333
B( 41-C , 42-C ) :   1.2303 B( 41-C , 45-H ) :   0.9701 B( 42-C , 43-N ) :   1.6399
B( 42-C , 46-H ) :   0.9519

Dispersion correction           -0.023385941
FINAL SINGLE POINT ENERGY     -1508.682638403549

DIPOLE MOMENT
-------------
                                X             Y             Z
Electronic contribution:    -11.21910      -7.41435     -10.04043
Nuclear contribution   :     11.36388       8.35163      11.89643
                        -----------------------------------------
Total Dipole Moment    :      0.14478       0.93728       1.85600
                        -----------------------------------------
Magnitude (a.u.)       :      2.08427
Magnitude (Debye)      :      5.29780

                             ****ORCA TERMINATED NORMALLY****
TOTAL RUN TIME: 0 days 0 hours 14 minutes 47 seconds 422 msec
