                         Program Version 4.0.0 -  RELEASE  -
|  1> #
|  2> !wB97X-D3 def2-TZVP def2/J RIJCOSX Grid5 FinalGrid6 TightSCF
|  3> %pal
|  4>  nprocs 24
|  5> end
|  6> %tddft
|  7>   Mode sTDDFT
|  8>   nroots 2
|  9>   Ethresh 10.0
| 10>   maxcore 5000
| 11>   triplets true
| 12> end
| 13> * xyz 0 1
| 14> C 6.32302075 -1.27066841 -2.28365899
| 15> C 5.43896463 -0.76570270 -1.33375447
| 16> C 5.92588681 0.10176532 -0.33727662
| 17> C 7.30913960 0.43653852 -0.34895493
| 18> C 8.20352227 -0.07641990 -1.30085117
| 19> C 7.68862242 -0.93633059 -2.26756968
| 20> C 5.33243679 0.83103351 0.77298641
| 21> C 6.39298509 1.58335045 1.36043178
| 22> N 7.56942384 1.31925751 0.68468979
| 23> C 6.20667173 2.45854892 2.44051085
| 24> C 4.91203120 2.59553395 2.93708484
| 25> C 3.84956067 1.87258299 2.38110490
| 26> C 4.02406982 0.97022539 1.31375632
| 27> H 2.85560704 1.99388294 2.80578385
| 28> H 8.46966203 1.73354822 0.89267557
| 29> H 4.72083795 3.26814871 3.76831349
| 30> H 4.38971920 -1.04424842 -1.36416756
| 31> H 9.25638960 0.19235243 -1.28527457
| 32> H 8.35074001 -1.35362293 -3.02165105
| 33> H 5.95222609 -1.94146699 -3.05377890
| 34> S -2.02808764 0.13058397 0.50633787
| 35> C -3.14749338 -1.07691279 -0.16380245
| 36> N -2.52718090 -2.14672617 -0.65751816
| 37> N -1.17059713 -2.09390272 -0.54717730
| 38> C -0.72665342 -0.98601293 0.03191332
| 39> C 0.66892605 -0.68438318 0.26702925
| 40> N 1.67430637 -1.48498936 -0.06099470
| 41> N 2.90007878 -0.97519609 0.26359244
| 42> C 2.86031854 0.21758851 0.83604523
| 43> S 1.19317590 0.82193022 1.03955757
| 44> S -9.64971559 -2.47699499 -1.26322993
| 45> C -8.45837325 -1.36861625 -0.63813933
| 46> C -9.04567092 -0.22617360 -0.10632269
| 47> C -10.46593572 -0.23395371 -0.19819378
| 48> C -10.94002585 -1.37999420 -0.79756790
| 49> C -7.02782574 -1.26688416 -0.49887178
| 50> C -6.72289084 -0.05577466 0.12240065
| 51> C -7.98842387 0.71115552 0.42539493
| 52> C -5.33534836 0.14579580 0.30868139
| 53> C -4.57673964 -0.91809496 -0.17342984
| 54> S -5.59853459 -2.18844102 -0.86863190
| 55> H -4.89018828 1.02080630 0.77146156
| 56> H -11.11200345 0.56120360 0.15726731
| 57> H -8.10762996 0.90909815 1.49827127
| 58> H -8.01035265 1.68964567 -0.07112397
| 59> H 7.03792882 3.01464575 2.86467259
| 60> H -11.97708080 -1.62771160 -0.98502153
| 61> *
| 62> $new_job
| 63> #
| 64> !wB97X-D3 def2-TZVP def2/J RIJCOSX Grid5 FinalGrid6 TightSCF
| 65> %pal
| 66>  nprocs 24
| 67> end
| 68> %elprop
| 69>    dipole     true
| 70>    quadrupole true
| 71> end
| 72> %tddft
| 73>   Mode sTDDFT
| 74>   nroots 2
| 75>   Ethresh 10.0
| 76>   maxcore 5000
| 77> end
| 78> * xyz 0 1
| 79> C 6.32302075 -1.27066841 -2.28365899
| 80> C 5.43896463 -0.76570270 -1.33375447
| 81> C 5.92588681 0.10176532 -0.33727662
| 82> C 7.30913960 0.43653852 -0.34895493
| 83> C 8.20352227 -0.07641990 -1.30085117
| 84> C 7.68862242 -0.93633059 -2.26756968
| 85> C 5.33243679 0.83103351 0.77298641
| 86> C 6.39298509 1.58335045 1.36043178
| 87> N 7.56942384 1.31925751 0.68468979
| 88> C 6.20667173 2.45854892 2.44051085
| 89> C 4.91203120 2.59553395 2.93708484
| 90> C 3.84956067 1.87258299 2.38110490
| 91> C 4.02406982 0.97022539 1.31375632
| 92> H 2.85560704 1.99388294 2.80578385
| 93> H 8.46966203 1.73354822 0.89267557
| 94> H 4.72083795 3.26814871 3.76831349
| 95> H 4.38971920 -1.04424842 -1.36416756
| 96> H 9.25638960 0.19235243 -1.28527457
| 97> H 8.35074001 -1.35362293 -3.02165105
| 98> H 5.95222609 -1.94146699 -3.05377890
| 99> S -2.02808764 0.13058397 0.50633787
|100> C -3.14749338 -1.07691279 -0.16380245
|101> N -2.52718090 -2.14672617 -0.65751816
|102> N -1.17059713 -2.09390272 -0.54717730
|103> C -0.72665342 -0.98601293 0.03191332
|104> C 0.66892605 -0.68438318 0.26702925
|105> N 1.67430637 -1.48498936 -0.06099470
|106> N 2.90007878 -0.97519609 0.26359244
|107> C 2.86031854 0.21758851 0.83604523
|108> S 1.19317590 0.82193022 1.03955757
|109> S -9.64971559 -2.47699499 -1.26322993
|110> C -8.45837325 -1.36861625 -0.63813933
|111> C -9.04567092 -0.22617360 -0.10632269
|112> C -10.46593572 -0.23395371 -0.19819378
|113> C -10.94002585 -1.37999420 -0.79756790
|114> C -7.02782574 -1.26688416 -0.49887178
|115> C -6.72289084 -0.05577466 0.12240065
|116> C -7.98842387 0.71115552 0.42539493
|117> C -5.33534836 0.14579580 0.30868139
|118> C -4.57673964 -0.91809496 -0.17342984
|119> S -5.59853459 -2.18844102 -0.86863190
|120> H -4.89018828 1.02080630 0.77146156
|121> H -11.11200345 0.56120360 0.15726731
|122> H -8.10762996 0.90909815 1.49827127
|123> H -8.01035265 1.68964567 -0.07112397
|124> H 7.03792882 3.01464575 2.86467259
|125> H -11.97708080 -1.62771160 -0.98502153
|126> *
|127>
|128>                          ****END OF INPUT****
 Total Charge           Charge          ....    0
 Multiplicity           Mult            ....    1
 Number of Electrons    NEL             ....  262
Dispersion correction           -0.021413285
FINAL SINGLE POINT ENERGY     -2827.072190210933

CARTESIAN COORDINATES (ANGSTROEM)
---------------------------------
  C      6.323021   -1.270668   -2.283659
  C      5.438965   -0.765703   -1.333754
  C      5.925887    0.101765   -0.337277
  C      7.309140    0.436539   -0.348955
  C      8.203522   -0.076420   -1.300851
  C      7.688622   -0.936331   -2.267570
  C      5.332437    0.831034    0.772986
  C      6.392985    1.583350    1.360432
  N      7.569424    1.319258    0.684690
  C      6.206672    2.458549    2.440511
  C      4.912031    2.595534    2.937085
  C      3.849561    1.872583    2.381105
  C      4.024070    0.970225    1.313756
  H      2.855607    1.993883    2.805784
  H      8.469662    1.733548    0.892676
  H      4.720838    3.268149    3.768313
  H      4.389719   -1.044248   -1.364168
  H      9.256390    0.192352   -1.285275
  H      8.350740   -1.353623   -3.021651
  H      5.952226   -1.941467   -3.053779
  S     -2.028088    0.130584    0.506338
  C     -3.147493   -1.076913   -0.163802
  N     -2.527181   -2.146726   -0.657518
  N     -1.170597   -2.093903   -0.547177
  C     -0.726653   -0.986013    0.031913
  C      0.668926   -0.684383    0.267029
  N      1.674306   -1.484989   -0.060995
  N      2.900079   -0.975196    0.263592
  C      2.860319    0.217589    0.836045
  S      1.193176    0.821930    1.039558
  S     -9.649716   -2.476995   -1.263230
  C     -8.458373   -1.368616   -0.638139
  C     -9.045671   -0.226174   -0.106323
  C    -10.465936   -0.233954   -0.198194
  C    -10.940026   -1.379994   -0.797568
  C     -7.027826   -1.266884   -0.498872
  C     -6.722891   -0.055775    0.122401
  C     -7.988424    0.711156    0.425395
  C     -5.335348    0.145796    0.308681
  C     -4.576740   -0.918095   -0.173430
  S     -5.598535   -2.188441   -0.868632
  H     -4.890188    1.020806    0.771462
  H    -11.112003    0.561204    0.157267
  H     -8.107630    0.909098    1.498271
  H     -8.010353    1.689646   -0.071124
  H      7.037929    3.014646    2.864673
  H    -11.977081   -1.627712   -0.985022

 Multiplicity           Mult            ....    1
 Number of Electrons    NEL             ....  262
 Basis Dimension        Dim             .... 1156

ORBITAL ENERGIES
----------------

  NO   OCC          E(Eh)            E(eV)
   0   2.0000     -89.012252     -2422.1465
   1   2.0000     -89.009428     -2422.0697
   2   2.0000     -88.998751     -2421.7791
   3   2.0000     -88.994843     -2421.6728
   4   2.0000     -14.471416      -393.7872
   5   2.0000     -14.471065      -393.7777
   6   2.0000     -14.469006      -393.7217
   7   2.0000     -14.465764      -393.6334
   8   2.0000     -14.465001      -393.6127
   9   2.0000     -10.382139      -282.5124
  10   2.0000     -10.379237      -282.4334
  11   2.0000     -10.378714      -282.4192
  12   2.0000     -10.376635      -282.3626
  13   2.0000     -10.342178      -281.4250
  14   2.0000     -10.339399      -281.3493
  15   2.0000     -10.335713      -281.2491
  16   2.0000     -10.331793      -281.1424
  17   2.0000     -10.326035      -280.9857
  18   2.0000     -10.324655      -280.9482
  19   2.0000     -10.322210      -280.8816
  20   2.0000     -10.315603      -280.7018
  21   2.0000     -10.313491      -280.6444
  22   2.0000     -10.307950      -280.4936
  23   2.0000     -10.306582      -280.4564
  24   2.0000     -10.306145      -280.4445
  25   2.0000     -10.301652      -280.3222
  26   2.0000     -10.300558      -280.2924
  27   2.0000     -10.297491      -280.2090
  28   2.0000     -10.296473      -280.1813
  29   2.0000     -10.288934      -279.9761
  30   2.0000     -10.284063      -279.8436
  31   2.0000     -10.283063      -279.8164
  32   2.0000     -10.276802      -279.6460
  33   2.0000     -10.270006      -279.4611
  34   2.0000      -8.108937      -220.6554
  35   2.0000      -8.106198      -220.5809
  36   2.0000      -8.094088      -220.2513
  37   2.0000      -8.090577      -220.1558
  38   2.0000      -6.061933      -164.9536
  39   2.0000      -6.059131      -164.8773
  40   2.0000      -6.058286      -164.8543
  41   2.0000      -6.055907      -164.7896
  42   2.0000      -6.055461      -164.7775
  43   2.0000      -6.053319      -164.7192
  44   2.0000      -6.047609      -164.5638
  45   2.0000      -6.044001      -164.4656
  46   2.0000      -6.043351      -164.4479
  47   2.0000      -6.040896      -164.3811
  48   2.0000      -6.039747      -164.3499
  49   2.0000      -6.037606      -164.2916
  50   2.0000      -1.156268       -31.4637
  51   2.0000      -1.147426       -31.2231
  52   2.0000      -1.108401       -30.1611
  53   2.0000      -1.043345       -28.3909
  54   2.0000      -1.005985       -27.3742
  55   2.0000      -0.993460       -27.0334
  56   2.0000      -0.977756       -26.6061
  57   2.0000      -0.963747       -26.2249
  58   2.0000      -0.955691       -26.0057
  59   2.0000      -0.941185       -25.6110
  60   2.0000      -0.924993       -25.1703
  61   2.0000      -0.915165       -24.9029
  62   2.0000      -0.902233       -24.5510
  63   2.0000      -0.885540       -24.0968
  64   2.0000      -0.875800       -23.8317
  65   2.0000      -0.859560       -23.3898
  66   2.0000      -0.847121       -23.0513
  67   2.0000      -0.841636       -22.9021
  68   2.0000      -0.825110       -22.4524
  69   2.0000      -0.808641       -22.0042
  70   2.0000      -0.784667       -21.3519
  71   2.0000      -0.767614       -20.8878
  72   2.0000      -0.752062       -20.4646
  73   2.0000      -0.729754       -19.8576
  74   2.0000      -0.724659       -19.7190
  75   2.0000      -0.713372       -19.4118
  76   2.0000      -0.696231       -18.9454
  77   2.0000      -0.686530       -18.6814
  78   2.0000      -0.676342       -18.4042
  79   2.0000      -0.663866       -18.0647
  80   2.0000      -0.655648       -17.8411
  81   2.0000      -0.634689       -17.2708
  82   2.0000      -0.627850       -17.0847
  83   2.0000      -0.619309       -16.8522
  84   2.0000      -0.617094       -16.7920
  85   2.0000      -0.603056       -16.4100
  86   2.0000      -0.597911       -16.2700
  87   2.0000      -0.578140       -15.7320
  88   2.0000      -0.574622       -15.6363
  89   2.0000      -0.569476       -15.4962
  90   2.0000      -0.564084       -15.3495
  91   2.0000      -0.563024       -15.3207
  92   2.0000      -0.554470       -15.0879
  93   2.0000      -0.552610       -15.0373
  94   2.0000      -0.546925       -14.8826
  95   2.0000      -0.542783       -14.7699
  96   2.0000      -0.535598       -14.5744
  97   2.0000      -0.530438       -14.4340
  98   2.0000      -0.525047       -14.2873
  99   2.0000      -0.523134       -14.2352
 100   2.0000      -0.518046       -14.0968
 101   2.0000      -0.503049       -13.6887
 102   2.0000      -0.497166       -13.5286
 103   2.0000      -0.487920       -13.2770
 104   2.0000      -0.486421       -13.2362
 105   2.0000      -0.484347       -13.1797
 106   2.0000      -0.478768       -13.0279
 107   2.0000      -0.476219       -12.9586
 108   2.0000      -0.472381       -12.8541
 109   2.0000      -0.468997       -12.7620
 110   2.0000      -0.451170       -12.2770
 111   2.0000      -0.446597       -12.1525
 112   2.0000      -0.445951       -12.1349
 113   2.0000      -0.444851       -12.1050
 114   2.0000      -0.435813       -11.8591
 115   2.0000      -0.426370       -11.6021
 116   2.0000      -0.411958       -11.2099
 117   2.0000      -0.406653       -11.0656
 118   2.0000      -0.405147       -11.0246
 119   2.0000      -0.398267       -10.8374
 120   2.0000      -0.386695       -10.5225
 121   2.0000      -0.378889       -10.3101
 122   2.0000      -0.375414       -10.2155
 123   2.0000      -0.361790        -9.8448
 124   2.0000      -0.356787        -9.7087
 125   2.0000      -0.353730        -9.6255
 126   2.0000      -0.346708        -9.4344
 127   2.0000      -0.332998        -9.0613
 128   2.0000      -0.301612        -8.2073
 129   2.0000      -0.292284        -7.9534
 130   2.0000      -0.279979        -7.6186
 131   0.0000      -0.040696        -1.1074
 132   0.0000      -0.006395        -0.1740
 133   0.0000       0.018844         0.5128
 134   0.0000       0.030411         0.8275
 135   0.0000       0.047271         1.2863

MULLIKEN ATOMIC CHARGES
-----------------------
   0 C :   -0.182762
   1 C :   -0.124625
   2 C :   -0.025292
   3 C :    0.180058
   4 C :   -0.243160
   5 C :   -0.072381
   6 C :   -0.038613
   7 C :    0.190346
   8 N :   -0.303483
   9 C :   -0.223881
  10 C :   -0.096546
  11 C :   -0.275945
  12 C :    0.124354
  13 H :    0.123759
  14 H :    0.237023
  15 H :    0.126636
  16 H :    0.163806
  17 H :    0.113332
  18 H :    0.122833
  19 H :    0.121740
  20 S :   -0.007352
  21 C :    0.217316
  22 N :   -0.140777
  23 N :   -0.129963
  24 C :    0.116307
  25 C :    0.073401
  26 N :   -0.133682
  27 N :   -0.171952
  28 C :    0.163244
  29 S :   -0.005978
  30 S :    0.082481
  31 C :   -0.189457
  32 C :    0.019861
  33 C :   -0.235168
  34 C :   -0.174886
  35 C :    0.076346
  36 C :    0.001865
  37 C :   -0.116365
  38 C :   -0.259183
  39 C :   -0.053374
  40 S :    0.120145
  41 H :    0.149396
  42 H :    0.137828
  43 H :    0.128008
  44 H :    0.126699
  45 H :    0.121808
  46 H :    0.166232
Sum of atomic charges:   -0.0000000

LOEWDIN ATOMIC CHARGES
----------------------
   0 C :   -0.156097
   1 C :   -0.090292
   2 C :   -0.078177
   3 C :   -0.144408
   4 C :   -0.136571
   5 C :   -0.138044
   6 C :   -0.027508
   7 C :   -0.143064
   8 N :    0.201648
   9 C :   -0.117774
  10 C :   -0.142524
  11 C :   -0.125133
  12 C :   -0.116608
  13 H :    0.144045
  14 H :    0.193612
  15 H :    0.147569
  16 H :    0.155130
  17 H :    0.142500
  18 H :    0.144745
  19 H :    0.144999
  20 S :    0.689275
  21 C :   -0.439698
  22 N :    0.038388
  23 N :    0.077457
  24 C :   -0.456357
  25 C :   -0.459039
  26 N :    0.071300
  27 N :    0.055523
  28 C :   -0.372747
  29 S :    0.695233
  30 S :    0.703133
  31 C :   -0.332610
  32 C :   -0.140615
  33 C :   -0.178249
  34 C :   -0.369255
  35 C :   -0.315179
  36 C :   -0.144468
  37 C :   -0.153201
  38 C :   -0.125294
  39 C :   -0.359451
  40 S :    0.771627
  41 H :    0.147207
  42 H :    0.145533
  43 H :    0.158856
  44 H :    0.158883
  45 H :    0.145832
  46 H :    0.129869

  Mayer bond orders larger than 0.1
B(  0-C ,  1-C ) :   1.5381 B(  0-C ,  5-C ) :   1.3514 B(  0-C , 19-H ) :   0.9863
B(  1-C ,  2-C ) :   1.2665 B(  1-C , 16-H ) :   0.9332 B(  2-C ,  3-C ) :   1.3501
B(  2-C ,  6-C ) :   1.0906 B(  3-C ,  4-C ) :   1.3044 B(  3-C ,  8-N ) :   1.1134
B(  4-C ,  5-C ) :   1.4837 B(  4-C , 17-H ) :   0.9765 B(  5-C , 18-H ) :   0.9795
B(  6-C ,  7-C ) :   1.3188 B(  6-C , 12-C ) :   1.2426 B(  7-C ,  8-N ) :   1.1569
B(  7-C ,  9-C ) :   1.2868 B(  8-N , 14-H ) :   0.9130 B(  9-C , 10-C ) :   1.4657
B(  9-C , 45-H ) :   0.9743 B( 10-C , 11-C ) :   1.4207 B( 10-C , 15-H ) :   0.9810
B( 11-C , 12-C ) :   1.3938 B( 11-C , 13-H ) :   0.9630 B( 12-C , 28-C ) :   0.9607
B( 20-S , 21-C ) :   1.2831 B( 20-S , 24-C ) :   1.2572 B( 21-C , 22-N ) :   1.6977
B( 21-C , 39-C ) :   0.9548 B( 21-C , 40-S ) :  -0.1267 B( 22-N , 23-N ) :   1.1295
B( 23-N , 24-C ) :   1.7203 B( 24-C , 25-C ) :   1.0201 B( 25-C , 26-N ) :   1.7166
B( 25-C , 29-S ) :   1.2833 B( 26-N , 27-N ) :   1.0893 B( 27-N , 28-C ) :   1.6512
B( 28-C , 29-S ) :   1.2695 B( 30-S , 31-C ) :   1.3366 B( 30-S , 33-C ) :   0.1440
B( 30-S , 34-C ) :   1.2320 B( 31-C , 32-C ) :   1.5330 B( 31-C , 35-C ) :   0.8960
B( 32-C , 33-C ) :   1.2025 B( 32-C , 37-C ) :   1.0784 B( 33-C , 34-C ) :   1.7137
B( 33-C , 42-H ) :   0.9623 B( 34-C , 46-H ) :   0.9399 B( 35-C , 36-C ) :   1.4993
B( 35-C , 40-S ) :   1.3399 B( 36-C , 37-C ) :   1.0935 B( 36-C , 38-C ) :   1.3219
B( 37-C , 43-H ) :   0.9009 B( 37-C , 44-H ) :   0.8908 B( 38-C , 39-C ) :   1.5380
B( 38-C , 40-S ) :   0.1233 B( 38-C , 41-H ) :   0.9149 B( 39-C , 40-S ) :   1.2958

Dispersion correction           -0.021413285
FINAL SINGLE POINT ENERGY     -2827.072190175599

DIPOLE MOMENT
-------------
                                X             Y             Z
Electronic contribution:    -16.63447      -9.30830      -1.24185
Nuclear contribution   :     16.05697      12.18103       2.50597
                        -----------------------------------------
Total Dipole Moment    :     -0.57750       2.87273       1.26412
                        -----------------------------------------
Magnitude (a.u.)       :      3.19125
Magnitude (Debye)      :      8.11152

                             ****ORCA TERMINATED NORMALLY****
TOTAL RUN TIME: 0 days 0 hours 13 minutes 25 seconds 72 msec
