                         Program Version 4.0.0 -  RELEASE  -
|  1> #
|  2> !wB97X-D3 def2-TZVP def2/J RIJCOSX Grid5 FinalGrid6 TightSCF
|  3> %pal
|  4>  nprocs 24
|  5> end
|  6> %tddft
|  7>   Mode sTDDFT
|  8>   nroots 2
|  9>   Ethresh 10.0
| 10>   maxcore 5000
| 11>   triplets true
| 12> end
| 13> * xyz 0 1
| 14> C 8.85380360 1.65572954 -2.24746579
| 15> C 8.00813300 0.84581577 -1.49368857
| 16> C 8.48199150 -0.39616158 -1.02955437
| 17> C 9.80800249 -0.78424069 -1.37183839
| 18> C 10.66401065 0.03246662 -2.12639127
| 19> C 10.16717621 1.26026312 -2.55593904
| 20> C 7.91404564 -1.49615675 -0.26459812
| 21> C 8.92467378 -2.50116627 -0.21038943
| 22> N 10.05559893 -2.04683028 -0.86230816
| 23> C 8.73338287 -3.74760353 0.40436126
| 24> C 7.48537227 -3.99768573 0.97035544
| 25> C 6.47453432 -3.02810682 0.93996664
| 26> C 6.66113052 -1.76395691 0.34972962
| 27> H 5.52036321 -3.24736774 1.41146142
| 28> H 10.91476346 -2.57011052 -0.97808885
| 29> H 7.29207286 -4.95286773 1.45009658
| 30> H 6.99795277 1.17788602 -1.27790418
| 31> H 11.67395575 -0.28588364 -2.37043750
| 32> H 10.80051895 1.91973095 -3.14323214
| 33> H 8.49235412 2.61549136 -2.60605942
| 34> C 0.06108663 0.93841115 0.92839538
| 35> N 0.60438812 2.16442253 0.92921261
| 36> O 1.95164523 2.00583846 0.82074808
| 37> C 2.25685355 0.70091313 0.75339199
| 38> C 1.09549192 -0.04208025 0.81893541
| 39> C 3.65459834 0.31321068 0.62497998
| 40> N 4.64509842 1.21490785 0.55582941
| 41> O 5.80209612 0.51100236 0.43681122
| 42> C 5.55233502 -0.80684940 0.42668320
| 43> C 4.18935304 -1.00561483 0.55416888
| 44> H 3.65305570 -1.94316253 0.57309528
| 45> H 1.00579044 -1.11824169 0.78280450
| 46> C -3.15028258 -0.96115490 1.51504919
| 47> C -1.80790951 -0.62524604 1.40930919
| 48> C -1.38564364 0.67827945 1.02992785
| 49> C -2.36037244 1.64802819 0.73599553
| 50> C -3.75815349 1.34441795 0.87354742
| 51> C -4.16120815 0.02697943 1.26636680
| 52> C -4.77266741 2.32215367 0.58475565
| 53> C -6.11977066 1.98788358 0.70729209
| 54> C -6.51190737 0.68912876 1.08449474
| 55> C -5.55781395 -0.28966136 1.35000956
| 56> N -5.96225585 -1.55945107 1.82588256
| 57> C -6.70046775 -2.36978885 1.14474162
| 58> C -7.13257932 -3.67432076 1.76891658
| 59> N -4.41154634 3.66217684 0.31638972
| 60> C -4.79750214 4.30794588 -0.73310257
| 61> C -5.56928667 3.69672757 -1.88890970
| 62> N -1.98090320 2.96540456 0.39597585
| 63> C -1.47440271 3.28982222 -0.74471737
| 64> C -1.26735478 2.31434639 -1.88789317
| 65> N -3.52293768 -2.24239028 1.98987154
| 66> C -3.19410588 -3.33925853 1.39422309
| 67> C -3.58273317 -4.65881766 2.01572038
| 68> C -2.45900693 -3.41723119 0.06779090
| 69> C -7.15418360 -2.12948944 -0.28389006
| 70> C -4.44058504 5.76770850 -0.87257281
| 71> C -1.03539129 4.71120640 -0.98533843
| 72> H -1.05843023 -1.37418799 1.64832611
| 73> H -6.87620725 2.74599728 0.52559757
| 74> H -7.02670574 -3.03095817 -0.88145616
| 75> H -6.59589864 -1.31823608 -0.74349759
| 76> H -8.21322742 -1.87166470 -0.31063984
| 77> H -6.75827363 -4.51940630 1.19014100
| 78> H -8.21970863 -3.75485852 1.78337603
| 79> H -6.76316724 -3.76164546 2.78629538
| 80> H -1.41934708 -3.70717955 0.22278217
| 81> H -2.46954261 -2.45981778 -0.44639506
| 82> H -2.91138282 -4.17063454 -0.57529861
| 83> H -4.23452080 -5.22159945 1.34654731
| 84> H -4.10138311 -4.50886697 2.95789065
| 85> H -2.70215050 -5.27591569 2.19564468
| 86> H -0.21785758 2.02434704 -1.94597814
| 87> H -1.53523843 2.76829264 -2.84057971
| 88> H -1.85849740 1.41305825 -1.74528452
| 89> H -1.27986720 5.34414780 -0.13759889
| 90> H 0.04196880 4.75091452 -1.14778033
| 91> H -1.51024917 5.11942693 -1.87781743
| 92> H -3.86163919 6.11133768 -0.02065221
| 93> H -5.34110152 6.37762732 -0.95066025
| 94> H -3.86106998 5.93906563 -1.78014007
| 95> H -5.14751320 4.01934625 -2.83980440
| 96> H -6.60987366 4.02167150 -1.87099880
| 97> H -5.55222662 2.61097799 -1.84468737
| 98> H 9.52543430 -4.49065408 0.42861580
| 99> H -7.56708128 0.45171248 1.18488487
|100> *
|101> $new_job
|102> #
|103> !wB97X-D3 def2-TZVP def2/J RIJCOSX Grid5 FinalGrid6 TightSCF
|104> %pal
|105>  nprocs 24
|106> end
|107> %elprop
|108>    dipole     true
|109>    quadrupole true
|110> end
|111> %tddft
|112>   Mode sTDDFT
|113>   nroots 2
|114>   Ethresh 10.0
|115>   maxcore 5000
|116> end
|117> * xyz 0 1
|118> C 8.85380360 1.65572954 -2.24746579
|119> C 8.00813300 0.84581577 -1.49368857
|120> C 8.48199150 -0.39616158 -1.02955437
|121> C 9.80800249 -0.78424069 -1.37183839
|122> C 10.66401065 0.03246662 -2.12639127
|123> C 10.16717621 1.26026312 -2.55593904
|124> C 7.91404564 -1.49615675 -0.26459812
|125> C 8.92467378 -2.50116627 -0.21038943
|126> N 10.05559893 -2.04683028 -0.86230816
|127> C 8.73338287 -3.74760353 0.40436126
|128> C 7.48537227 -3.99768573 0.97035544
|129> C 6.47453432 -3.02810682 0.93996664
|130> C 6.66113052 -1.76395691 0.34972962
|131> H 5.52036321 -3.24736774 1.41146142
|132> H 10.91476346 -2.57011052 -0.97808885
|133> H 7.29207286 -4.95286773 1.45009658
|134> H 6.99795277 1.17788602 -1.27790418
|135> H 11.67395575 -0.28588364 -2.37043750
|136> H 10.80051895 1.91973095 -3.14323214
|137> H 8.49235412 2.61549136 -2.60605942
|138> C 0.06108663 0.93841115 0.92839538
|139> N 0.60438812 2.16442253 0.92921261
|140> O 1.95164523 2.00583846 0.82074808
|141> C 2.25685355 0.70091313 0.75339199
|142> C 1.09549192 -0.04208025 0.81893541
|143> C 3.65459834 0.31321068 0.62497998
|144> N 4.64509842 1.21490785 0.55582941
|145> O 5.80209612 0.51100236 0.43681122
|146> C 5.55233502 -0.80684940 0.42668320
|147> C 4.18935304 -1.00561483 0.55416888
|148> H 3.65305570 -1.94316253 0.57309528
|149> H 1.00579044 -1.11824169 0.78280450
|150> C -3.15028258 -0.96115490 1.51504919
|151> C -1.80790951 -0.62524604 1.40930919
|152> C -1.38564364 0.67827945 1.02992785
|153> C -2.36037244 1.64802819 0.73599553
|154> C -3.75815349 1.34441795 0.87354742
|155> C -4.16120815 0.02697943 1.26636680
|156> C -4.77266741 2.32215367 0.58475565
|157> C -6.11977066 1.98788358 0.70729209
|158> C -6.51190737 0.68912876 1.08449474
|159> C -5.55781395 -0.28966136 1.35000956
|160> N -5.96225585 -1.55945107 1.82588256
|161> C -6.70046775 -2.36978885 1.14474162
|162> C -7.13257932 -3.67432076 1.76891658
|163> N -4.41154634 3.66217684 0.31638972
|164> C -4.79750214 4.30794588 -0.73310257
|165> C -5.56928667 3.69672757 -1.88890970
|166> N -1.98090320 2.96540456 0.39597585
|167> C -1.47440271 3.28982222 -0.74471737
|168> C -1.26735478 2.31434639 -1.88789317
|169> N -3.52293768 -2.24239028 1.98987154
|170> C -3.19410588 -3.33925853 1.39422309
|171> C -3.58273317 -4.65881766 2.01572038
|172> C -2.45900693 -3.41723119 0.06779090
|173> C -7.15418360 -2.12948944 -0.28389006
|174> C -4.44058504 5.76770850 -0.87257281
|175> C -1.03539129 4.71120640 -0.98533843
|176> H -1.05843023 -1.37418799 1.64832611
|177> H -6.87620725 2.74599728 0.52559757
|178> H -7.02670574 -3.03095817 -0.88145616
|179> H -6.59589864 -1.31823608 -0.74349759
|180> H -8.21322742 -1.87166470 -0.31063984
|181> H -6.75827363 -4.51940630 1.19014100
|182> H -8.21970863 -3.75485852 1.78337603
|183> H -6.76316724 -3.76164546 2.78629538
|184> H -1.41934708 -3.70717955 0.22278217
|185> H -2.46954261 -2.45981778 -0.44639506
|186> H -2.91138282 -4.17063454 -0.57529861
|187> H -4.23452080 -5.22159945 1.34654731
|188> H -4.10138311 -4.50886697 2.95789065
|189> H -2.70215050 -5.27591569 2.19564468
|190> H -0.21785758 2.02434704 -1.94597814
|191> H -1.53523843 2.76829264 -2.84057971
|192> H -1.85849740 1.41305825 -1.74528452
|193> H -1.27986720 5.34414780 -0.13759889
|194> H 0.04196880 4.75091452 -1.14778033
|195> H -1.51024917 5.11942693 -1.87781743
|196> H -3.86163919 6.11133768 -0.02065221
|197> H -5.34110152 6.37762732 -0.95066025
|198> H -3.86106998 5.93906563 -1.78014007
|199> H -5.14751320 4.01934625 -2.83980440
|200> H -6.60987366 4.02167150 -1.87099880
|201> H -5.55222662 2.61097799 -1.84468737
|202> H 9.52543430 -4.49065408 0.42861580
|203> H -7.56708128 0.45171248 1.18488487
|204> *
|205>
|206>                          ****END OF INPUT****
 Total Charge           Charge          ....    0
 Multiplicity           Mult            ....    1
 Number of Electrons    NEL             ....  342
Dispersion correction           -0.049051709
FINAL SINGLE POINT ENERGY     -2080.291763239513

CARTESIAN COORDINATES (ANGSTROEM)
---------------------------------
  C      8.853804    1.655730   -2.247466
  C      8.008133    0.845816   -1.493689
  C      8.481991   -0.396162   -1.029554
  C      9.808002   -0.784241   -1.371838
  C     10.664011    0.032467   -2.126391
  C     10.167176    1.260263   -2.555939
  C      7.914046   -1.496157   -0.264598
  C      8.924674   -2.501166   -0.210389
  N     10.055599   -2.046830   -0.862308
  C      8.733383   -3.747604    0.404361
  C      7.485372   -3.997686    0.970355
  C      6.474534   -3.028107    0.939967
  C      6.661131   -1.763957    0.349730
  H      5.520363   -3.247368    1.411461
  H     10.914763   -2.570111   -0.978089
  H      7.292073   -4.952868    1.450097
  H      6.997953    1.177886   -1.277904
  H     11.673956   -0.285884   -2.370437
  H     10.800519    1.919731   -3.143232
  H      8.492354    2.615491   -2.606059
  C      0.061087    0.938411    0.928395
  N      0.604388    2.164423    0.929213
  O      1.951645    2.005838    0.820748
  C      2.256854    0.700913    0.753392
  C      1.095492   -0.042080    0.818935
  C      3.654598    0.313211    0.624980
  N      4.645098    1.214908    0.555829
  O      5.802096    0.511002    0.436811
  C      5.552335   -0.806849    0.426683
  C      4.189353   -1.005615    0.554169
  H      3.653056   -1.943163    0.573095
  H      1.005790   -1.118242    0.782805
  C     -3.150283   -0.961155    1.515049
  C     -1.807910   -0.625246    1.409309
  C     -1.385644    0.678279    1.029928
  C     -2.360372    1.648028    0.735996
  C     -3.758153    1.344418    0.873547
  C     -4.161208    0.026979    1.266367
  C     -4.772667    2.322154    0.584756
  C     -6.119771    1.987884    0.707292
  C     -6.511907    0.689129    1.084495
  C     -5.557814   -0.289661    1.350010
  N     -5.962256   -1.559451    1.825883
  C     -6.700468   -2.369789    1.144742
  C     -7.132579   -3.674321    1.768917
  N     -4.411546    3.662177    0.316390
  C     -4.797502    4.307946   -0.733103
  C     -5.569287    3.696728   -1.888910
  N     -1.980903    2.965405    0.395976
  C     -1.474403    3.289822   -0.744717
  C     -1.267355    2.314346   -1.887893
  N     -3.522938   -2.242390    1.989872
  C     -3.194106   -3.339259    1.394223
  C     -3.582733   -4.658818    2.015720
  C     -2.459007   -3.417231    0.067791
  C     -7.154184   -2.129489   -0.283890
  C     -4.440585    5.767709   -0.872573
  C     -1.035391    4.711206   -0.985338
  H     -1.058430   -1.374188    1.648326
  H     -6.876207    2.745997    0.525598
  H     -7.026706   -3.030958   -0.881456
  H     -6.595899   -1.318236   -0.743498
  H     -8.213227   -1.871665   -0.310640
  H     -6.758274   -4.519406    1.190141
  H     -8.219709   -3.754859    1.783376
  H     -6.763167   -3.761645    2.786295
  H     -1.419347   -3.707180    0.222782
  H     -2.469543   -2.459818   -0.446395
  H     -2.911383   -4.170635   -0.575299
  H     -4.234521   -5.221599    1.346547
  H     -4.101383   -4.508867    2.957891
  H     -2.702150   -5.275916    2.195645
  H     -0.217858    2.024347   -1.945978
  H     -1.535238    2.768293   -2.840580
  H     -1.858497    1.413058   -1.745285
  H     -1.279867    5.344148   -0.137599
  H      0.041969    4.750915   -1.147780
  H     -1.510249    5.119427   -1.877817
  H     -3.861639    6.111338   -0.020652
  H     -5.341102    6.377627   -0.950660
  H     -3.861070    5.939066   -1.780140
  H     -5.147513    4.019346   -2.839804
  H     -6.609874    4.021672   -1.870999
  H     -5.552227    2.610978   -1.844687
  H      9.525434   -4.490654    0.428616
  H     -7.567081    0.451712    1.184885

 Multiplicity           Mult            ....    1
 Number of Electrons    NEL             ....  342
 Basis Dimension        Dim             .... 1741

ORBITAL ENERGIES
----------------

  NO   OCC          E(Eh)            E(eV)
   0   2.0000     -19.337043      -526.1877
   1   2.0000     -19.323287      -525.8134
   2   2.0000     -14.480242      -394.0274
   3   2.0000     -14.472746      -393.8234
   4   2.0000     -14.464283      -393.5932
   5   2.0000     -14.410020      -392.1166
   6   2.0000     -14.408766      -392.0825
   7   2.0000     -14.407865      -392.0579
   8   2.0000     -14.401760      -391.8918
   9   2.0000     -10.368075      -282.1297
  10   2.0000     -10.362503      -281.9780
  11   2.0000     -10.342530      -281.4346
  12   2.0000     -10.336178      -281.2617
  13   2.0000     -10.333327      -281.1841
  14   2.0000     -10.332038      -281.1490
  15   2.0000     -10.330145      -281.0975
  16   2.0000     -10.328882      -281.0632
  17   2.0000     -10.325722      -280.9772
  18   2.0000     -10.325651      -280.9753
  19   2.0000     -10.320125      -280.8249
  20   2.0000     -10.318202      -280.7726
  21   2.0000     -10.310746      -280.5697
  22   2.0000     -10.310210      -280.5551
  23   2.0000     -10.309799      -280.5439
  24   2.0000     -10.305816      -280.4355
  25   2.0000     -10.300549      -280.2922
  26   2.0000     -10.299364      -280.2599
  27   2.0000     -10.296978      -280.1950
  28   2.0000     -10.294845      -280.1370
  29   2.0000     -10.294412      -280.1252
  30   2.0000     -10.294169      -280.1186
  31   2.0000     -10.293757      -280.1074
  32   2.0000     -10.292868      -280.0832
  33   2.0000     -10.291987      -280.0592
  34   2.0000     -10.287637      -279.9408
  35   2.0000     -10.286332      -279.9053
  36   2.0000     -10.283344      -279.8240
  37   2.0000     -10.278913      -279.7034
  38   2.0000     -10.277913      -279.6762
  39   2.0000     -10.276582      -279.6400
  40   2.0000     -10.275112      -279.6000
  41   2.0000     -10.274844      -279.5927
  42   2.0000     -10.274409      -279.5809
  43   2.0000     -10.274325      -279.5786
  44   2.0000     -10.273168      -279.5471
  45   2.0000     -10.273075      -279.5446
  46   2.0000     -10.269811      -279.4558
  47   2.0000     -10.269276      -279.4412
  48   2.0000     -10.262431      -279.2549
  49   2.0000      -1.285835       -34.9893
  50   2.0000      -1.271198       -34.5911
  51   2.0000      -1.110104       -30.2075
  52   2.0000      -1.055117       -28.7112
  53   2.0000      -1.046327       -28.4720
  54   2.0000      -1.033914       -28.1342
  55   2.0000      -1.029646       -28.0181
  56   2.0000      -1.008421       -27.4405
  57   2.0000      -0.986622       -26.8474
  58   2.0000      -0.978535       -26.6273
  59   2.0000      -0.967627       -26.3305
  60   2.0000      -0.966174       -26.2909
  61   2.0000      -0.937431       -25.5088
  62   2.0000      -0.927952       -25.2509
  63   2.0000      -0.910516       -24.7764
  64   2.0000      -0.904747       -24.6194
  65   2.0000      -0.904530       -24.6135
  66   2.0000      -0.883025       -24.0283
  67   2.0000      -0.874167       -23.7873
  68   2.0000      -0.870238       -23.6804
  69   2.0000      -0.862978       -23.4828
  70   2.0000      -0.857668       -23.3383
  71   2.0000      -0.848783       -23.0966
  72   2.0000      -0.843451       -22.9515
  73   2.0000      -0.830479       -22.5985
  74   2.0000      -0.821697       -22.3595
  75   2.0000      -0.818952       -22.2848
  76   2.0000      -0.816057       -22.2060
  77   2.0000      -0.810940       -22.0668
  78   2.0000      -0.796981       -21.6870
  79   2.0000      -0.777869       -21.1669
  80   2.0000      -0.768551       -20.9133
  81   2.0000      -0.756430       -20.5835
  82   2.0000      -0.737566       -20.0702
  83   2.0000      -0.734562       -19.9884
  84   2.0000      -0.723314       -19.6824
  85   2.0000      -0.720865       -19.6157
  86   2.0000      -0.716923       -19.5085
  87   2.0000      -0.708087       -19.2680
  88   2.0000      -0.702702       -19.1215
  89   2.0000      -0.678028       -18.4501
  90   2.0000      -0.665570       -18.1111
  91   2.0000      -0.659706       -17.9515
  92   2.0000      -0.650427       -17.6990
  93   2.0000      -0.641182       -17.4475
  94   2.0000      -0.630561       -17.1585
  95   2.0000      -0.618275       -16.8241
  96   2.0000      -0.610482       -16.6120
  97   2.0000      -0.604936       -16.4611
  98   2.0000      -0.604293       -16.4437
  99   2.0000      -0.599728       -16.3194
 100   2.0000      -0.593475       -16.1493
 101   2.0000      -0.592638       -16.1265
 102   2.0000      -0.583928       -15.8895
 103   2.0000      -0.582989       -15.8639
 104   2.0000      -0.578058       -15.7298
 105   2.0000      -0.567933       -15.4542
 106   2.0000      -0.566211       -15.4074
 107   2.0000      -0.563747       -15.3403
 108   2.0000      -0.560992       -15.2654
 109   2.0000      -0.558981       -15.2106
 110   2.0000      -0.554011       -15.0754
 111   2.0000      -0.552925       -15.0459
 112   2.0000      -0.550335       -14.9754
 113   2.0000      -0.548991       -14.9388
 114   2.0000      -0.545246       -14.8369
 115   2.0000      -0.544839       -14.8258
 116   2.0000      -0.538953       -14.6657
 117   2.0000      -0.537657       -14.6304
 118   2.0000      -0.534973       -14.5574
 119   2.0000      -0.532749       -14.4968
 120   2.0000      -0.532357       -14.4862
 121   2.0000      -0.528546       -14.3825
 122   2.0000      -0.525872       -14.3097
 123   2.0000      -0.523510       -14.2454
 124   2.0000      -0.513965       -13.9857
 125   2.0000      -0.509165       -13.8551
 126   2.0000      -0.504611       -13.7312
 127   2.0000      -0.499606       -13.5950
 128   2.0000      -0.496128       -13.5003
 129   2.0000      -0.494814       -13.4646
 130   2.0000      -0.491949       -13.3866
 131   2.0000      -0.491033       -13.3617
 132   2.0000      -0.489811       -13.3284
 133   2.0000      -0.488825       -13.3016
 134   2.0000      -0.483091       -13.1456
 135   2.0000      -0.482275       -13.1234
 136   2.0000      -0.475279       -12.9330
 137   2.0000      -0.474028       -12.8989
 138   2.0000      -0.470984       -12.8161
 139   2.0000      -0.470126       -12.7928
 140   2.0000      -0.467566       -12.7231
 141   2.0000      -0.462694       -12.5906
 142   2.0000      -0.461413       -12.5557
 143   2.0000      -0.454447       -12.3661
 144   2.0000      -0.452922       -12.3246
 145   2.0000      -0.448034       -12.1916
 146   2.0000      -0.446279       -12.1439
 147   2.0000      -0.444674       -12.1002
 148   2.0000      -0.443642       -12.0721
 149   2.0000      -0.437186       -11.8964
 150   2.0000      -0.427690       -11.6380
 151   2.0000      -0.425985       -11.5916
 152   2.0000      -0.413203       -11.2438
 153   2.0000      -0.405741       -11.0408
 154   2.0000      -0.400173       -10.8893
 155   2.0000      -0.395503       -10.7622
 156   2.0000      -0.393522       -10.7083
 157   2.0000      -0.390685       -10.6311
 158   2.0000      -0.377008       -10.2589
 159   2.0000      -0.373197       -10.1552
 160   2.0000      -0.356319        -9.6959
 161   2.0000      -0.349251        -9.5036
 162   2.0000      -0.340357        -9.2616
 163   2.0000      -0.334063        -9.0903
 164   2.0000      -0.328648        -8.9430
 165   2.0000      -0.318616        -8.6700
 166   2.0000      -0.317253        -8.6329
 167   2.0000      -0.303247        -8.2518
 168   2.0000      -0.299657        -8.1541
 169   2.0000      -0.292014        -7.9461
 170   2.0000      -0.240303        -6.5390
 171   0.0000      -0.000666        -0.0181
 172   0.0000       0.017819         0.4849
 173   0.0000       0.033176         0.9028
 174   0.0000       0.041107         1.1186
 175   0.0000       0.048400         1.3170

MULLIKEN ATOMIC CHARGES
-----------------------
   0 C :   -0.176597
   1 C :   -0.129645
   2 C :   -0.049447
   3 C :    0.176159
   4 C :   -0.236515
   5 C :   -0.078065
   6 C :   -0.024094
   7 C :    0.179354
   8 N :   -0.300625
   9 C :   -0.230142
  10 C :   -0.090179
  11 C :   -0.284706
  12 C :    0.065265
  13 H :    0.120337
  14 H :    0.237209
  15 H :    0.125127
  16 H :    0.153503
  17 H :    0.114830
  18 H :    0.123331
  19 H :    0.121744
  20 C :    0.209333
  21 N :   -0.148651
  22 O :   -0.104933
  23 C :    0.203484
  24 C :   -0.272784
  25 C :    0.121483
  26 N :   -0.163597
  27 O :   -0.128919
  28 C :    0.294821
  29 C :   -0.263876
  30 H :    0.160284
  31 H :    0.151381
  32 C :    0.025977
  33 C :   -0.426764
  34 C :    0.247839
  35 C :   -0.232380
  36 C :    0.330966
  37 C :    0.166639
  38 C :   -0.013785
  39 C :   -0.206099
  40 C :   -0.217701
  41 C :    0.015140
  42 N :   -0.225327
  43 C :    0.118715
  44 C :   -0.348415
  45 N :   -0.235935
  46 C :    0.122183
  47 C :   -0.375795
  48 N :   -0.217485
  49 C :    0.161490
  50 C :   -0.358730
  51 N :   -0.231107
  52 C :    0.119937
  53 C :   -0.352173
  54 C :   -0.372825
  55 C :   -0.369714
  56 C :   -0.353301
  57 C :   -0.359549
  58 H :    0.117572
  59 H :    0.122696
  60 H :    0.123274
  61 H :    0.154946
  62 H :    0.136365
  63 H :    0.112748
  64 H :    0.132752
  65 H :    0.143978
  66 H :    0.129224
  67 H :    0.158205
  68 H :    0.126724
  69 H :    0.114798
  70 H :    0.145115
  71 H :    0.131484
  72 H :    0.147965
  73 H :    0.123686
  74 H :    0.142727
  75 H :    0.142988
  76 H :    0.146020
  77 H :    0.107341
  78 H :    0.146798
  79 H :    0.133240
  80 H :    0.115082
  81 H :    0.124850
  82 H :    0.137661
  83 H :    0.154743
  84 H :    0.119029
  85 H :    0.121312
Sum of atomic charges:   -0.0000000

LOEWDIN ATOMIC CHARGES
----------------------
   0 C :   -0.155980
   1 C :   -0.095598
   2 C :   -0.080522
   3 C :   -0.144575
   4 C :   -0.134244
   5 C :   -0.138807
   6 C :   -0.034037
   7 C :   -0.143150
   8 N :    0.201756
   9 C :   -0.121401
  10 C :   -0.141387
  11 C :   -0.108930
  12 C :   -0.081823
  13 H :    0.149591
  14 H :    0.193769
  15 H :    0.147309
  16 H :    0.152695
  17 H :    0.143095
  18 H :    0.145053
  19 H :    0.145038
  20 C :   -0.203238
  21 N :    0.058119
  22 O :    0.308846
  23 C :   -0.226482
  24 C :   -0.124702
  25 C :   -0.227311
  26 N :    0.046298
  27 O :    0.309554
  28 C :   -0.199629
  29 C :   -0.122114
  30 H :    0.147634
  31 H :    0.144547
  32 C :   -0.164741
  33 C :   -0.088386
  34 C :   -0.103807
  35 C :   -0.111690
  36 C :   -0.030446
  37 C :   -0.030397
  38 C :   -0.160296
  39 C :   -0.127664
  40 C :   -0.125879
  41 C :   -0.164005
  42 N :    0.188978
  43 C :   -0.268285
  44 C :   -0.263624
  45 N :    0.191707
  46 C :   -0.268082
  47 C :   -0.271511
  48 N :    0.203592
  49 C :   -0.263509
  50 C :   -0.264491
  51 N :    0.189564
  52 C :   -0.268889
  53 C :   -0.263883
  54 C :   -0.271622
  55 C :   -0.270068
  56 C :   -0.263483
  57 C :   -0.258699
  58 H :    0.150971
  59 H :    0.148840
  60 H :    0.126671
  61 H :    0.133518
  62 H :    0.132699
  63 H :    0.125386
  64 H :    0.129468
  65 H :    0.131847
  66 H :    0.130401
  67 H :    0.133910
  68 H :    0.126999
  69 H :    0.125649
  70 H :    0.132074
  71 H :    0.129065
  72 H :    0.137207
  73 H :    0.125769
  74 H :    0.132757
  75 H :    0.133276
  76 H :    0.136266
  77 H :    0.123058
  78 H :    0.132952
  79 H :    0.129713
  80 H :    0.125349
  81 H :    0.127030
  82 H :    0.132318
  83 H :    0.133217
  84 H :    0.145399
  85 H :    0.148426

  Mayer bond orders larger than 0.1
B(  0-C ,  1-C ) :   1.5373 B(  0-C ,  5-C ) :   1.3528 B(  0-C , 19-H ) :   0.9863
B(  1-C ,  2-C ) :   1.2702 B(  1-C , 16-H ) :   0.9346 B(  2-C ,  3-C ) :   1.3595
B(  2-C ,  6-C ) :   1.0720 B(  3-C ,  4-C ) :   1.3023 B(  3-C ,  8-N ) :   1.1166
B(  4-C ,  5-C ) :   1.4805 B(  4-C , 17-H ) :   0.9775 B(  5-C , 18-H ) :   0.9815
B(  6-C ,  7-C ) :   1.3238 B(  6-C , 12-C ) :   1.2352 B(  7-C ,  8-N ) :   1.1566
B(  7-C ,  9-C ) :   1.2871 B(  8-N , 14-H ) :   0.9119 B(  9-C , 10-C ) :   1.4608
B(  9-C , 84-H ) :   0.9766 B( 10-C , 11-C ) :   1.4096 B( 10-C , 15-H ) :   0.9847
B( 11-C , 12-C ) :   1.4359 B( 11-C , 13-H ) :   0.9737 B( 12-C , 28-C ) :   0.9683
B( 20-C , 21-N ) :   1.6477 B( 20-C , 24-C ) :   1.2619 B( 20-C , 34-C ) :   0.8856
B( 21-N , 22-O ) :   0.9567 B( 21-N , 23-C ) :   0.1203 B( 22-O , 23-C ) :   1.2320
B( 23-C , 24-C ) :   1.6217 B( 23-C , 25-C ) :   1.0025 B( 24-C , 31-H ) :   0.9157
B( 25-C , 26-N ) :   1.6642 B( 25-C , 29-C ) :   1.2848 B( 26-N , 27-O ) :   0.9833
B( 26-N , 28-C ) :   0.1255 B( 27-O , 28-C ) :   1.1729 B( 28-C , 29-C ) :   1.6081
B( 29-C , 30-H ) :   0.9230 B( 32-C , 33-C ) :   1.5893 B( 32-C , 37-C ) :   1.1657
B( 32-C , 51-N ) :   1.0932 B( 33-C , 34-C ) :   1.1260 B( 33-C , 58-H ) :   0.9642
B( 34-C , 35-C ) :   1.5033 B( 35-C , 36-C ) :   1.1490 B( 35-C , 48-N ) :   1.1938
B( 36-C , 37-C ) :   1.2998 B( 36-C , 38-C ) :   1.1644 B( 37-C , 41-C ) :   1.2036
B( 38-C , 39-C ) :   1.5057 B( 38-C , 45-N ) :   1.1133 B( 39-C , 40-C ) :   1.2268
B( 39-C , 59-H ) :   0.9874 B( 40-C , 41-C ) :   1.4978 B( 40-C , 85-H ) :   0.9901
B( 41-C , 42-N ) :   1.1102 B( 42-N , 43-C ) :   1.9094 B( 43-C , 44-C ) :   0.9580
B( 43-C , 55-C ) :   0.9456 B( 44-C , 63-H ) :   0.9664 B( 44-C , 64-H ) :   0.9573
B( 44-C , 65-H ) :   0.9883 B( 45-N , 46-C ) :   1.9067 B( 46-C , 47-C ) :   0.9443
B( 46-C , 56-C ) :   0.9562 B( 47-C , 81-H ) :   0.9616 B( 47-C , 82-H ) :   0.9620
B( 47-C , 83-H ) :   0.9811 B( 48-N , 49-C ) :   1.8316 B( 49-C , 50-C ) :   0.9362
B( 49-C , 57-C ) :   0.9506 B( 50-C , 72-H ) :   0.9580 B( 50-C , 73-H ) :   0.9640
B( 50-C , 74-H ) :   0.9835 B( 51-N , 52-C ) :   1.9097 B( 52-C , 53-C ) :   0.9560
B( 52-C , 54-C ) :   0.9423 B( 53-C , 69-H ) :   0.9681 B( 53-C , 70-H ) :   0.9890
B( 53-C , 71-H ) :   0.9571 B( 54-C , 66-H ) :   0.9633 B( 54-C , 67-H ) :   0.9805
B( 54-C , 68-H ) :   0.9620 B( 55-C , 60-H ) :   0.9617 B( 55-C , 61-H ) :   0.9807
B( 55-C , 62-H ) :   0.9615 B( 56-C , 78-H ) :   0.9890 B( 56-C , 79-H ) :   0.9552
B( 56-C , 80-H ) :   0.9678 B( 57-C , 75-H ) :   0.9922 B( 57-C , 76-H ) :   0.9464
B( 57-C , 77-H ) :   0.9725

Dispersion correction           -0.049051709
FINAL SINGLE POINT ENERGY     -2080.291763374082

DIPOLE MOMENT
-------------
                                X             Y             Z
Electronic contribution:     59.46726       4.48878      16.09029
Nuclear contribution   :    -59.24167      -7.30335     -18.62002
                        -----------------------------------------
Total Dipole Moment    :      0.22559      -2.81457      -2.52973
                        -----------------------------------------
Magnitude (a.u.)       :      3.79107
Magnitude (Debye)      :      9.63614

                             ****ORCA TERMINATED NORMALLY****
TOTAL RUN TIME: 0 days 0 hours 35 minutes 13 seconds 788 msec
