                         Program Version 4.0.0 -  RELEASE  -
|  1> #
|  2> !wB97X-D3 def2-TZVP def2/J RIJCOSX Grid5 FinalGrid6 TightSCF
|  3> %pal
|  4>  nprocs 24
|  5> end
|  6> %tddft
|  7>   Mode sTDDFT
|  8>   nroots 2
|  9>   Ethresh 10.0
| 10>   maxcore 5000
| 11>   triplets true
| 12> end
| 13> * xyz 0 1
| 14> C 7.27176567 -2.13310939 -3.17830295
| 15> C 6.78076811 -1.29359194 -2.18175712
| 16> C 7.68687509 -0.53469153 -1.41635827
| 17> C 9.07838742 -0.67598445 -1.68034812
| 18> C 9.57532936 -1.51689715 -2.68785716
| 19> C 8.64985970 -2.24059585 -3.43509811
| 20> C 7.56975220 0.40093869 -0.30811233
| 21> C 8.90409128 0.75277473 0.05311749
| 22> N 9.78964040 0.11259588 -0.79296183
| 23> C 9.20790728 1.60437526 1.12574949
| 24> C 8.14100459 2.10752454 1.86659669
| 25> C 6.81879645 1.78659146 1.53248108
| 26> C 6.49848326 0.95480332 0.44310892
| 27> H 6.00908174 2.21482602 2.11716346
| 28> H 10.79879839 0.18190335 -0.74568023
| 29> H 8.33199003 2.76436398 2.71031710
| 30> H 5.71171039 -1.23858396 -2.00460755
| 31> H 10.64281025 -1.60347085 -2.87177662
| 32> H 8.99702868 -2.90308399 -4.22341469
| 33> H 6.57575244 -2.71927957 -3.77179963
| 34> C -0.59039071 0.41826514 1.23900831
| 35> N -0.68338852 0.17423218 -0.07875377
| 36> O 0.58223014 0.20343458 -0.57255618
| 37> C 1.45930484 0.45967654 0.41112611
| 38> C 0.77776929 0.60811752 1.60258872
| 39> C 2.87673016 0.53123564 0.08419020
| 40> N 3.33155190 0.35211219 -1.16473530
| 41> O 4.68293294 0.48203293 -1.10610379
| 42> C 5.07830795 0.73366541 0.15054995
| 43> C 3.96360123 0.78940967 0.96813254
| 44> H 3.92832145 0.96277940 2.03375905
| 45> H 1.18882661 0.82091828 2.57934435
| 46> C -6.60504413 0.67086621 -1.43316782
| 47> C -7.04455164 0.63760112 -2.75504032
| 48> C -6.31808269 -0.06211645 -3.72089500
| 49> C -5.13664110 -0.71379342 -3.36197690
| 50> C -4.69007820 -0.67696836 -2.04255515
| 51> C -5.42762906 -0.00003042 -1.05603718
| 52> C -4.91200239 0.04172591 0.34112907
| 53> C -5.80572310 0.00216938 1.50437517
| 54> N -5.36246455 0.22245441 2.73900202
| 55> C -4.00265974 0.41097801 2.88563369
| 56> C -3.10957450 0.31532070 1.75394134
| 57> N -3.59264815 0.15617523 0.47663997
| 58> C -3.33837125 0.64364193 4.08729445
| 59> S -1.62312572 0.73298653 3.82543070
| 60> C -1.75721613 0.46390997 2.10284243
| 61> C -7.25239986 -0.33417807 1.37302386
| 62> C -7.69690041 -1.34615575 0.50332011
| 63> C -9.05139326 -1.66252282 0.42142117
| 64> C -9.98277159 -0.97638600 1.20381504
| 65> C -9.55050714 0.01745992 2.08375137
| 66> C -8.19544871 0.33087533 2.17438308
| 67> H -7.85516731 1.10166746 2.86121434
| 68> H -10.27132652 0.54686314 2.70206070
| 69> H -11.03949445 -1.22124119 1.13363436
| 70> H -9.38159650 -2.44822202 -0.25332908
| 71> H -6.97762677 -1.89666583 -0.09795200
| 72> H -3.76727692 -1.17713629 -1.76052423
| 73> H -4.56124750 -1.24855398 -4.11363417
| 74> H -6.66622510 -0.09030435 -4.75028423
| 75> H -7.95498330 1.16235559 -3.03346557
| 76> H -7.16745861 1.23556826 -0.69372422
| 77> H 10.23605343 1.85261464 1.37337667
| 78> H -3.77434715 0.75175321 5.07208653
| 79> *
| 80> $new_job
| 81> #
| 82> !wB97X-D3 def2-TZVP def2/J RIJCOSX Grid5 FinalGrid6 TightSCF
| 83> %pal
| 84>  nprocs 24
| 85> end
| 86> %elprop
| 87>    dipole     true
| 88>    quadrupole true
| 89> end
| 90> %tddft
| 91>   Mode sTDDFT
| 92>   nroots 2
| 93>   Ethresh 10.0
| 94>   maxcore 5000
| 95> end
| 96> * xyz 0 1
| 97> C 7.27176567 -2.13310939 -3.17830295
| 98> C 6.78076811 -1.29359194 -2.18175712
| 99> C 7.68687509 -0.53469153 -1.41635827
|100> C 9.07838742 -0.67598445 -1.68034812
|101> C 9.57532936 -1.51689715 -2.68785716
|102> C 8.64985970 -2.24059585 -3.43509811
|103> C 7.56975220 0.40093869 -0.30811233
|104> C 8.90409128 0.75277473 0.05311749
|105> N 9.78964040 0.11259588 -0.79296183
|106> C 9.20790728 1.60437526 1.12574949
|107> C 8.14100459 2.10752454 1.86659669
|108> C 6.81879645 1.78659146 1.53248108
|109> C 6.49848326 0.95480332 0.44310892
|110> H 6.00908174 2.21482602 2.11716346
|111> H 10.79879839 0.18190335 -0.74568023
|112> H 8.33199003 2.76436398 2.71031710
|113> H 5.71171039 -1.23858396 -2.00460755
|114> H 10.64281025 -1.60347085 -2.87177662
|115> H 8.99702868 -2.90308399 -4.22341469
|116> H 6.57575244 -2.71927957 -3.77179963
|117> C -0.59039071 0.41826514 1.23900831
|118> N -0.68338852 0.17423218 -0.07875377
|119> O 0.58223014 0.20343458 -0.57255618
|120> C 1.45930484 0.45967654 0.41112611
|121> C 0.77776929 0.60811752 1.60258872
|122> C 2.87673016 0.53123564 0.08419020
|123> N 3.33155190 0.35211219 -1.16473530
|124> O 4.68293294 0.48203293 -1.10610379
|125> C 5.07830795 0.73366541 0.15054995
|126> C 3.96360123 0.78940967 0.96813254
|127> H 3.92832145 0.96277940 2.03375905
|128> H 1.18882661 0.82091828 2.57934435
|129> C -6.60504413 0.67086621 -1.43316782
|130> C -7.04455164 0.63760112 -2.75504032
|131> C -6.31808269 -0.06211645 -3.72089500
|132> C -5.13664110 -0.71379342 -3.36197690
|133> C -4.69007820 -0.67696836 -2.04255515
|134> C -5.42762906 -0.00003042 -1.05603718
|135> C -4.91200239 0.04172591 0.34112907
|136> C -5.80572310 0.00216938 1.50437517
|137> N -5.36246455 0.22245441 2.73900202
|138> C -4.00265974 0.41097801 2.88563369
|139> C -3.10957450 0.31532070 1.75394134
|140> N -3.59264815 0.15617523 0.47663997
|141> C -3.33837125 0.64364193 4.08729445
|142> S -1.62312572 0.73298653 3.82543070
|143> C -1.75721613 0.46390997 2.10284243
|144> C -7.25239986 -0.33417807 1.37302386
|145> C -7.69690041 -1.34615575 0.50332011
|146> C -9.05139326 -1.66252282 0.42142117
|147> C -9.98277159 -0.97638600 1.20381504
|148> C -9.55050714 0.01745992 2.08375137
|149> C -8.19544871 0.33087533 2.17438308
|150> H -7.85516731 1.10166746 2.86121434
|151> H -10.27132652 0.54686314 2.70206070
|152> H -11.03949445 -1.22124119 1.13363436
|153> H -9.38159650 -2.44822202 -0.25332908
|154> H -6.97762677 -1.89666583 -0.09795200
|155> H -3.76727692 -1.17713629 -1.76052423
|156> H -4.56124750 -1.24855398 -4.11363417
|157> H -6.66622510 -0.09030435 -4.75028423
|158> H -7.95498330 1.16235559 -3.03346557
|159> H -7.16745861 1.23556826 -0.69372422
|160> H 10.23605343 1.85261464 1.37337667
|161> H -3.77434715 0.75175321 5.07208653
|162> *
|163>
|164>                          ****END OF INPUT****
 Total Charge           Charge          ....    0
 Multiplicity           Mult            ....    1
 Number of Electrons    NEL             ....  304
Dispersion correction           -0.031824860
FINAL SINGLE POINT ENERGY     -2206.909058031436

CARTESIAN COORDINATES (ANGSTROEM)
---------------------------------
  C      7.271766   -2.133109   -3.178303
  C      6.780768   -1.293592   -2.181757
  C      7.686875   -0.534692   -1.416358
  C      9.078387   -0.675984   -1.680348
  C      9.575329   -1.516897   -2.687857
  C      8.649860   -2.240596   -3.435098
  C      7.569752    0.400939   -0.308112
  C      8.904091    0.752775    0.053117
  N      9.789640    0.112596   -0.792962
  C      9.207907    1.604375    1.125749
  C      8.141005    2.107525    1.866597
  C      6.818796    1.786591    1.532481
  C      6.498483    0.954803    0.443109
  H      6.009082    2.214826    2.117163
  H     10.798798    0.181903   -0.745680
  H      8.331990    2.764364    2.710317
  H      5.711710   -1.238584   -2.004608
  H     10.642810   -1.603471   -2.871777
  H      8.997029   -2.903084   -4.223415
  H      6.575752   -2.719280   -3.771800
  C     -0.590391    0.418265    1.239008
  N     -0.683389    0.174232   -0.078754
  O      0.582230    0.203435   -0.572556
  C      1.459305    0.459677    0.411126
  C      0.777769    0.608118    1.602589
  C      2.876730    0.531236    0.084190
  N      3.331552    0.352112   -1.164735
  O      4.682933    0.482033   -1.106104
  C      5.078308    0.733665    0.150550
  C      3.963601    0.789410    0.968133
  H      3.928321    0.962779    2.033759
  H      1.188827    0.820918    2.579344
  C     -6.605044    0.670866   -1.433168
  C     -7.044552    0.637601   -2.755040
  C     -6.318083   -0.062116   -3.720895
  C     -5.136641   -0.713793   -3.361977
  C     -4.690078   -0.676968   -2.042555
  C     -5.427629   -0.000030   -1.056037
  C     -4.912002    0.041726    0.341129
  C     -5.805723    0.002169    1.504375
  N     -5.362465    0.222454    2.739002
  C     -4.002660    0.410978    2.885634
  C     -3.109574    0.315321    1.753941
  N     -3.592648    0.156175    0.476640
  C     -3.338371    0.643642    4.087294
  S     -1.623126    0.732987    3.825431
  C     -1.757216    0.463910    2.102842
  C     -7.252400   -0.334178    1.373024
  C     -7.696900   -1.346156    0.503320
  C     -9.051393   -1.662523    0.421421
  C     -9.982772   -0.976386    1.203815
  C     -9.550507    0.017460    2.083751
  C     -8.195449    0.330875    2.174383
  H     -7.855167    1.101667    2.861214
  H    -10.271327    0.546863    2.702061
  H    -11.039494   -1.221241    1.133634
  H     -9.381597   -2.448222   -0.253329
  H     -6.977627   -1.896666   -0.097952
  H     -3.767277   -1.177136   -1.760524
  H     -4.561247   -1.248554   -4.113634
  H     -6.666225   -0.090304   -4.750284
  H     -7.954983    1.162356   -3.033466
  H     -7.167459    1.235568   -0.693724
  H     10.236053    1.852615    1.373377
  H     -3.774347    0.751753    5.072087

 Multiplicity           Mult            ....    1
 Number of Electrons    NEL             ....  304
 Basis Dimension        Dim             .... 1496

ORBITAL ENERGIES
----------------

  NO   OCC          E(Eh)            E(eV)
   0   2.0000     -89.008306     -2422.0391
   1   2.0000     -19.339515      -526.2550
   2   2.0000     -19.331055      -526.0248
   3   2.0000     -14.482991      -394.1022
   4   2.0000     -14.474282      -393.8652
   5   2.0000     -14.473348      -393.8398
   6   2.0000     -14.445549      -393.0834
   7   2.0000     -14.440431      -392.9441
   8   2.0000     -10.370058      -282.1836
   9   2.0000     -10.369664      -282.1729
  10   2.0000     -10.350274      -281.6453
  11   2.0000     -10.348782      -281.6047
  12   2.0000     -10.345537      -281.5164
  13   2.0000     -10.340542      -281.3804
  14   2.0000     -10.337424      -281.2956
  15   2.0000     -10.336721      -281.2765
  16   2.0000     -10.331867      -281.1444
  17   2.0000     -10.331176      -281.1256
  18   2.0000     -10.329326      -281.0753
  19   2.0000     -10.327413      -281.0232
  20   2.0000     -10.320922      -280.8466
  21   2.0000     -10.306498      -280.4541
  22   2.0000     -10.303296      -280.3669
  23   2.0000     -10.302759      -280.3523
  24   2.0000     -10.301126      -280.3079
  25   2.0000     -10.299983      -280.2768
  26   2.0000     -10.297564      -280.2110
  27   2.0000     -10.297233      -280.2019
  28   2.0000     -10.295257      -280.1482
  29   2.0000     -10.293318      -280.0954
  30   2.0000     -10.290186      -280.0102
  31   2.0000     -10.288973      -279.9772
  32   2.0000     -10.288498      -279.9643
  33   2.0000     -10.287971      -279.9499
  34   2.0000     -10.287057      -279.9251
  35   2.0000     -10.287043      -279.9247
  36   2.0000     -10.286963      -279.9225
  37   2.0000     -10.286626      -279.9133
  38   2.0000     -10.285068      -279.8709
  39   2.0000     -10.283827      -279.8372
  40   2.0000     -10.283276      -279.8222
  41   2.0000     -10.282878      -279.8113
  42   2.0000     -10.281810      -279.7823
  43   2.0000     -10.275173      -279.6017
  44   2.0000      -8.103680      -220.5123
  45   2.0000      -6.056605      -164.8086
  46   2.0000      -6.052613      -164.7000
  47   2.0000      -6.051602      -164.6725
  48   2.0000      -1.288584       -35.0642
  49   2.0000      -1.278846       -34.7992
  50   2.0000      -1.110623       -30.2216
  51   2.0000      -1.100161       -29.9369
  52   2.0000      -1.031805       -28.0768
  53   2.0000      -1.017294       -27.6820
  54   2.0000      -1.008126       -27.4325
  55   2.0000      -0.987992       -26.8846
  56   2.0000      -0.983236       -26.7552
  57   2.0000      -0.974486       -26.5171
  58   2.0000      -0.973373       -26.4868
  59   2.0000      -0.967351       -26.3230
  60   2.0000      -0.939658       -25.5694
  61   2.0000      -0.918534       -24.9946
  62   2.0000      -0.907541       -24.6955
  63   2.0000      -0.905192       -24.6315
  64   2.0000      -0.880700       -23.9651
  65   2.0000      -0.875009       -23.8102
  66   2.0000      -0.868108       -23.6224
  67   2.0000      -0.862507       -23.4700
  68   2.0000      -0.851541       -23.1716
  69   2.0000      -0.848981       -23.1019
  70   2.0000      -0.846177       -23.0257
  71   2.0000      -0.843953       -22.9651
  72   2.0000      -0.784089       -21.3362
  73   2.0000      -0.779713       -21.2171
  74   2.0000      -0.771248       -20.9867
  75   2.0000      -0.764511       -20.8034
  76   2.0000      -0.742574       -20.2065
  77   2.0000      -0.735373       -20.0105
  78   2.0000      -0.723876       -19.6977
  79   2.0000      -0.721731       -19.6393
  80   2.0000      -0.717976       -19.5371
  81   2.0000      -0.714386       -19.4394
  82   2.0000      -0.709870       -19.3165
  83   2.0000      -0.702285       -19.1101
  84   2.0000      -0.697589       -18.9824
  85   2.0000      -0.690454       -18.7882
  86   2.0000      -0.666426       -18.1344
  87   2.0000      -0.655710       -17.8428
  88   2.0000      -0.636661       -17.3244
  89   2.0000      -0.632145       -17.2015
  90   2.0000      -0.631141       -17.1742
  91   2.0000      -0.619875       -16.8677
  92   2.0000      -0.618443       -16.8287
  93   2.0000      -0.610252       -16.6058
  94   2.0000      -0.606945       -16.5158
  95   2.0000      -0.598526       -16.2867
  96   2.0000      -0.589072       -16.0295
  97   2.0000      -0.585766       -15.9395
  98   2.0000      -0.581187       -15.8149
  99   2.0000      -0.567636       -15.4462
 100   2.0000      -0.566373       -15.4118
 101   2.0000      -0.564687       -15.3659
 102   2.0000      -0.561126       -15.2690
 103   2.0000      -0.555364       -15.1122
 104   2.0000      -0.550895       -14.9906
 105   2.0000      -0.548226       -14.9180
 106   2.0000      -0.543838       -14.7986
 107   2.0000      -0.540195       -14.6995
 108   2.0000      -0.534796       -14.5526
 109   2.0000      -0.533241       -14.5102
 110   2.0000      -0.529788       -14.4163
 111   2.0000      -0.526779       -14.3344
 112   2.0000      -0.526047       -14.3145
 113   2.0000      -0.523573       -14.2471
 114   2.0000      -0.520268       -14.1572
 115   2.0000      -0.519022       -14.1233
 116   2.0000      -0.507420       -13.8076
 117   2.0000      -0.501628       -13.6500
 118   2.0000      -0.491089       -13.3632
 119   2.0000      -0.488915       -13.3040
 120   2.0000      -0.484408       -13.1814
 121   2.0000      -0.476041       -12.9537
 122   2.0000      -0.471747       -12.8369
 123   2.0000      -0.470708       -12.8086
 124   2.0000      -0.464872       -12.6498
 125   2.0000      -0.462715       -12.5911
 126   2.0000      -0.449447       -12.2301
 127   2.0000      -0.448549       -12.2056
 128   2.0000      -0.446666       -12.1544
 129   2.0000      -0.444827       -12.1043
 130   2.0000      -0.442043       -12.0286
 131   2.0000      -0.440571       -11.9886
 132   2.0000      -0.438301       -11.9268
 133   2.0000      -0.434858       -11.8331
 134   2.0000      -0.428942       -11.6721
 135   2.0000      -0.420080       -11.4310
 136   2.0000      -0.412204       -11.2166
 137   2.0000      -0.407682       -11.0936
 138   2.0000      -0.397603       -10.8193
 139   2.0000      -0.394280       -10.7289
 140   2.0000      -0.374191       -10.1822
 141   2.0000      -0.366755        -9.9799
 142   2.0000      -0.359522        -9.7831
 143   2.0000      -0.347271        -9.4497
 144   2.0000      -0.342727        -9.3261
 145   2.0000      -0.342125        -9.3097
 146   2.0000      -0.335756        -9.1364
 147   2.0000      -0.335047        -9.1171
 148   2.0000      -0.309112        -8.4114
 149   2.0000      -0.303816        -8.2672
 150   2.0000      -0.296117        -8.0578
 151   2.0000      -0.292551        -7.9607
 152   0.0000      -0.036367        -0.9896
 153   0.0000      -0.001801        -0.0490
 154   0.0000       0.017076         0.4647
 155   0.0000       0.027350         0.7442
 156   0.0000       0.047768         1.2998

MULLIKEN ATOMIC CHARGES
-----------------------
   0 C :   -0.170195
   1 C :   -0.130379
   2 C :   -0.041505
   3 C :    0.165183
   4 C :   -0.232497
   5 C :   -0.084218
   6 C :   -0.030612
   7 C :    0.173555
   8 N :   -0.301705
   9 C :   -0.224073
  10 C :   -0.087940
  11 C :   -0.284841
  12 C :    0.079787
  13 H :    0.120510
  14 H :    0.236965
  15 H :    0.125562
  16 H :    0.152740
  17 H :    0.115034
  18 H :    0.123696
  19 H :    0.122955
  20 C :    0.267651
  21 N :   -0.131145
  22 O :   -0.093254
  23 C :    0.209639
  24 C :   -0.270244
  25 C :    0.128038
  26 N :   -0.159896
  27 O :   -0.128742
  28 C :    0.295331
  29 C :   -0.270130
  30 H :    0.162916
  31 H :    0.163896
  32 C :   -0.205299
  33 C :   -0.145819
  34 C :   -0.103630
  35 C :   -0.132476
  36 C :   -0.193944
  37 C :    0.017227
  38 C :    0.240852
  39 C :    0.255466
  40 N :   -0.275239
  41 C :    0.073071
  42 C :    0.113046
  43 N :   -0.256489
  44 C :   -0.230789
  45 S :    0.086864
  46 C :   -0.148613
  47 C :    0.042687
  48 C :   -0.201036
  49 C :   -0.142554
  50 C :   -0.106941
  51 C :   -0.129273
  52 C :   -0.208975
  53 H :    0.133091
  54 H :    0.125113
  55 H :    0.126375
  56 H :    0.125603
  57 H :    0.160844
  58 H :    0.151346
  59 H :    0.126598
  60 H :    0.124949
  61 H :    0.122631
  62 H :    0.157962
  63 H :    0.120356
  64 H :    0.174917
Sum of atomic charges:   -0.0000000

LOEWDIN ATOMIC CHARGES
----------------------
   0 C :   -0.155400
   1 C :   -0.095499
   2 C :   -0.080603
   3 C :   -0.144403
   4 C :   -0.133997
   5 C :   -0.138336
   6 C :   -0.033917
   7 C :   -0.143053
   8 N :    0.201979
   9 C :   -0.120767
  10 C :   -0.141146
  11 C :   -0.108746
  12 C :   -0.082141
  13 H :    0.149590
  14 H :    0.193855
  15 H :    0.147419
  16 H :    0.152653
  17 H :    0.143132
  18 H :    0.145176
  19 H :    0.145237
  20 C :   -0.256082
  21 N :    0.058153
  22 O :    0.315904
  23 C :   -0.220426
  24 C :   -0.128530
  25 C :   -0.227935
  26 N :    0.048099
  27 O :    0.311212
  28 C :   -0.198392
  29 C :   -0.121398
  30 H :    0.148242
  31 H :    0.145581
  32 C :   -0.092029
  33 C :   -0.141141
  34 C :   -0.135062
  35 C :   -0.137555
  36 C :   -0.084460
  37 C :   -0.117351
  38 C :   -0.118048
  39 C :   -0.120318
  40 N :    0.198718
  41 C :   -0.242378
  42 C :   -0.193631
  43 N :    0.219428
  44 C :   -0.342965
  45 S :    0.761955
  46 C :   -0.298225
  47 C :   -0.117409
  48 C :   -0.089806
  49 C :   -0.138444
  50 C :   -0.135535
  51 C :   -0.140183
  52 C :   -0.093512
  53 H :    0.153219
  54 H :    0.145646
  55 H :    0.144921
  56 H :    0.146677
  57 H :    0.158308
  58 H :    0.158395
  59 H :    0.146631
  60 H :    0.144681
  61 H :    0.145887
  62 H :    0.157158
  63 H :    0.145577
  64 H :    0.135390

  Mayer bond orders larger than 0.1
B(  0-C ,  1-C ) :   1.5379 B(  0-C ,  5-C ) :   1.3542 B(  0-C , 19-H ) :   0.9838
B(  1-C ,  2-C ) :   1.2737 B(  1-C , 16-H ) :   0.9345 B(  2-C ,  3-C ) :   1.3671
B(  2-C ,  6-C ) :   1.0838 B(  3-C ,  4-C ) :   1.3035 B(  3-C ,  8-N ) :   1.1158
B(  4-C ,  5-C ) :   1.4842 B(  4-C , 17-H ) :   0.9758 B(  5-C , 18-H ) :   0.9807
B(  6-C ,  7-C ) :   1.3298 B(  6-C , 12-C ) :   1.2460 B(  7-C ,  8-N ) :   1.1566
B(  7-C ,  9-C ) :   1.2904 B(  8-N , 14-H ) :   0.9118 B(  9-C , 10-C ) :   1.4620
B(  9-C , 63-H ) :   0.9710 B( 10-C , 11-C ) :   1.4131 B( 10-C , 15-H ) :   0.9826
B( 11-C , 12-C ) :   1.4360 B( 11-C , 13-H ) :   0.9715 B( 12-C , 28-C ) :   0.9653
B( 20-C , 21-N ) :   1.6524 B( 20-C , 24-C ) :   1.2259 B( 20-C , 45-S ) :  -0.1154
B( 20-C , 46-C ) :   0.8980 B( 21-N , 22-O ) :   0.9744 B( 21-N , 23-C ) :   0.1178
B( 22-O , 23-C ) :   1.2330 B( 23-C , 24-C ) :   1.6343 B( 23-C , 25-C ) :   0.9832
B( 24-C , 31-H ) :   0.9057 B( 25-C , 26-N ) :   1.6613 B( 25-C , 29-C ) :   1.2870
B( 26-N , 27-O ) :   0.9849 B( 26-N , 28-C ) :   0.1254 B( 27-O , 28-C ) :   1.1704
B( 28-C , 29-C ) :   1.6057 B( 29-C , 30-H ) :   0.9216 B( 32-C , 33-C ) :   1.4595
B( 32-C , 37-C ) :   1.3268 B( 32-C , 62-H ) :   0.9686 B( 33-C , 34-C ) :   1.3802
B( 33-C , 61-H ) :   0.9872 B( 34-C , 35-C ) :   1.3837 B( 34-C , 60-H ) :   0.9830
B( 35-C , 36-C ) :   1.4375 B( 35-C , 59-H ) :   0.9863 B( 36-C , 37-C ) :   1.4072
B( 36-C , 58-H ) :   0.9672 B( 37-C , 38-C ) :   0.8922 B( 38-C , 39-C ) :   1.0706
B( 38-C , 43-N ) :   1.6893 B( 39-C , 40-N ) :   1.6307 B( 39-C , 47-C ) :   0.9050
B( 40-N , 41-C ) :   1.2707 B( 41-C , 42-C ) :   1.2063 B( 41-C , 44-C ) :   1.5591
B( 42-C , 43-N ) :   1.2565 B( 42-C , 46-C ) :   1.3376 B( 44-C , 45-S ) :   1.3347
B( 44-C , 64-H ) :   0.9179 B( 45-S , 46-C ) :   1.3722 B( 47-C , 48-C ) :   1.3377
B( 47-C , 52-C ) :   1.4078 B( 48-C , 49-C ) :   1.4566 B( 48-C , 57-H ) :   0.9682
B( 49-C , 50-C ) :   1.3840 B( 49-C , 56-H ) :   0.9838 B( 50-C , 51-C ) :   1.3924
B( 50-C , 55-H ) :   0.9798 B( 51-C , 52-C ) :   1.4382 B( 51-C , 54-H ) :   0.9833
B( 52-C , 53-H ) :   0.9734

Dispersion correction           -0.031824860
FINAL SINGLE POINT ENERGY     -2206.909058037391

DIPOLE MOMENT
-------------
                                X             Y             Z
Electronic contribution:     10.14914       4.77556      10.67491
Nuclear contribution   :     -8.85002      -4.51744      -9.35166
                        -----------------------------------------
Total Dipole Moment    :      1.29912       0.25812       1.32325
                        -----------------------------------------
Magnitude (a.u.)       :      1.87225
Magnitude (Debye)      :      4.75889

                             ****ORCA TERMINATED NORMALLY****
TOTAL RUN TIME: 0 days 0 hours 21 minutes 36 seconds 101 msec
