                         Program Version 4.0.0 -  RELEASE  -
|  1> #
|  2> !wB97X-D3 def2-TZVP def2/J RIJCOSX Grid5 FinalGrid6 TightSCF
|  3> %pal
|  4>  nprocs 24
|  5> end
|  6> %tddft
|  7>   Mode sTDDFT
|  8>   nroots 2
|  9>   Ethresh 10.0
| 10>   maxcore 5000
| 11>   triplets true
| 12> end
| 13> * xyz 0 1
| 14> C -6.67170428 1.79464882 2.05117998
| 15> C -6.04172954 1.03905195 1.06558697
| 16> C -6.82855427 0.33594188 0.13356241
| 17> C -8.24503932 0.41914091 0.24477240
| 18> C -8.88239888 1.18540537 1.23259287
| 19> C -8.07311584 1.87280040 2.13360303
| 20> C -6.55206752 -0.55195958 -0.98537892
| 21> C -7.82379561 -0.97154930 -1.47726517
| 22> N -8.82244655 -0.36531532 -0.73824581
| 23> C -7.97604928 -1.87997946 -2.53505024
| 24> C -6.81507163 -2.39608104 -3.10697972
| 25> C -5.55209514 -2.00544811 -2.64532043
| 26> C -5.38167982 -1.07485549 -1.60199206
| 27> H -4.66869038 -2.41817851 -3.12719417
| 28> H -9.81644256 -0.50307850 -0.87352478
| 29> H -6.88617477 -3.10839890 -3.92394945
| 30> H -4.95737491 0.99963600 1.01924053
| 31> H -9.96630402 1.23504058 1.29355004
| 32> H -8.53059739 2.47660167 2.91293062
| 33> H -6.06875437 2.33997920 2.77213890
| 34> S 0.79570516 0.74022382 0.00015178
| 35> C -0.19590934 -0.56318902 -0.68603537
| 36> N 0.51057043 -1.62691119 -1.04823473
| 37> N 1.84911052 -1.49985201 -0.81964058
| 38> C 2.18430655 -0.33000178 -0.27633530
| 39> C -1.62875127 -0.45868269 -0.82747133
| 40> N -2.33007120 0.60947612 -0.46916459
| 41> N -3.67210019 0.47682791 -0.69795815
| 42> C -4.01842621 -0.68741343 -1.22510607
| 43> S -2.62047105 -1.75734463 -1.50591317
| 44> C 8.91946506 2.28298334 2.08115983
| 45> C 7.95289048 1.43560634 1.45721212
| 46> C 6.69139112 2.01805537 1.33817906
| 47> S 6.70480926 3.64876357 1.99827192
| 48> C 8.39442554 3.50706162 2.42038600
| 49> C 5.60880927 1.23866298 0.82110682
| 50> C 5.86533949 -0.03606532 0.32160620
| 51> C 7.29466295 -0.55818907 0.18469465
| 52> O 8.23257546 0.16809699 1.07625431
| 53> C 4.69054765 -0.70235312 -0.11232051
| 54> C 3.53182664 0.04620481 0.06012589
| 55> S 3.90117614 1.61780123 0.77629682
| 56> C 7.80429083 -0.33876999 -1.25976612
| 57> H 9.94904562 1.99794751 2.26334801
| 58> H 4.67926802 -1.69837787 -0.54097385
| 59> H 7.77415443 0.71775012 -1.51530329
| 60> H 8.82916618 -0.68728476 -1.36271867
| 61> H 7.18208070 -0.87929149 -1.96895229
| 62> C 7.40722563 -2.03743641 0.58638628
| 63> H 7.05722231 -2.18668039 1.60459273
| 64> H 6.81024746 -2.66062527 -0.07475695
| 65> H 8.44085799 -2.36915417 0.52811209
| 66> H -8.96062492 -2.17639652 -2.88562947
| 67> H 8.92536935 4.32515481 2.88963892
| 68> *
| 69> $new_job
| 70> #
| 71> !wB97X-D3 def2-TZVP def2/J RIJCOSX Grid5 FinalGrid6 TightSCF
| 72> %pal
| 73>  nprocs 24
| 74> end
| 75> %elprop
| 76>    dipole     true
| 77>    quadrupole true
| 78> end
| 79> %tddft
| 80>   Mode sTDDFT
| 81>   nroots 2
| 82>   Ethresh 10.0
| 83>   maxcore 5000
| 84> end
| 85> * xyz 0 1
| 86> C -6.67170428 1.79464882 2.05117998
| 87> C -6.04172954 1.03905195 1.06558697
| 88> C -6.82855427 0.33594188 0.13356241
| 89> C -8.24503932 0.41914091 0.24477240
| 90> C -8.88239888 1.18540537 1.23259287
| 91> C -8.07311584 1.87280040 2.13360303
| 92> C -6.55206752 -0.55195958 -0.98537892
| 93> C -7.82379561 -0.97154930 -1.47726517
| 94> N -8.82244655 -0.36531532 -0.73824581
| 95> C -7.97604928 -1.87997946 -2.53505024
| 96> C -6.81507163 -2.39608104 -3.10697972
| 97> C -5.55209514 -2.00544811 -2.64532043
| 98> C -5.38167982 -1.07485549 -1.60199206
| 99> H -4.66869038 -2.41817851 -3.12719417
|100> H -9.81644256 -0.50307850 -0.87352478
|101> H -6.88617477 -3.10839890 -3.92394945
|102> H -4.95737491 0.99963600 1.01924053
|103> H -9.96630402 1.23504058 1.29355004
|104> H -8.53059739 2.47660167 2.91293062
|105> H -6.06875437 2.33997920 2.77213890
|106> S 0.79570516 0.74022382 0.00015178
|107> C -0.19590934 -0.56318902 -0.68603537
|108> N 0.51057043 -1.62691119 -1.04823473
|109> N 1.84911052 -1.49985201 -0.81964058
|110> C 2.18430655 -0.33000178 -0.27633530
|111> C -1.62875127 -0.45868269 -0.82747133
|112> N -2.33007120 0.60947612 -0.46916459
|113> N -3.67210019 0.47682791 -0.69795815
|114> C -4.01842621 -0.68741343 -1.22510607
|115> S -2.62047105 -1.75734463 -1.50591317
|116> C 8.91946506 2.28298334 2.08115983
|117> C 7.95289048 1.43560634 1.45721212
|118> C 6.69139112 2.01805537 1.33817906
|119> S 6.70480926 3.64876357 1.99827192
|120> C 8.39442554 3.50706162 2.42038600
|121> C 5.60880927 1.23866298 0.82110682
|122> C 5.86533949 -0.03606532 0.32160620
|123> C 7.29466295 -0.55818907 0.18469465
|124> O 8.23257546 0.16809699 1.07625431
|125> C 4.69054765 -0.70235312 -0.11232051
|126> C 3.53182664 0.04620481 0.06012589
|127> S 3.90117614 1.61780123 0.77629682
|128> C 7.80429083 -0.33876999 -1.25976612
|129> H 9.94904562 1.99794751 2.26334801
|130> H 4.67926802 -1.69837787 -0.54097385
|131> H 7.77415443 0.71775012 -1.51530329
|132> H 8.82916618 -0.68728476 -1.36271867
|133> H 7.18208070 -0.87929149 -1.96895229
|134> C 7.40722563 -2.03743641 0.58638628
|135> H 7.05722231 -2.18668039 1.60459273
|136> H 6.81024746 -2.66062527 -0.07475695
|137> H 8.44085799 -2.36915417 0.52811209
|138> H -8.96062492 -2.17639652 -2.88562947
|139> H 8.92536935 4.32515481 2.88963892
|140> *
|141>
|142>                          ****END OF INPUT****
 Total Charge           Charge          ....    0
 Multiplicity           Mult            ....    1
 Number of Electrons    NEL             ....  286
Dispersion correction           -0.026498009
FINAL SINGLE POINT ENERGY     -2980.957527489722

CARTESIAN COORDINATES (ANGSTROEM)
---------------------------------
  C     -6.671704    1.794649    2.051180
  C     -6.041730    1.039052    1.065587
  C     -6.828554    0.335942    0.133562
  C     -8.245039    0.419141    0.244772
  C     -8.882399    1.185405    1.232593
  C     -8.073116    1.872800    2.133603
  C     -6.552068   -0.551960   -0.985379
  C     -7.823796   -0.971549   -1.477265
  N     -8.822447   -0.365315   -0.738246
  C     -7.976049   -1.879979   -2.535050
  C     -6.815072   -2.396081   -3.106980
  C     -5.552095   -2.005448   -2.645320
  C     -5.381680   -1.074855   -1.601992
  H     -4.668690   -2.418179   -3.127194
  H     -9.816443   -0.503078   -0.873525
  H     -6.886175   -3.108399   -3.923949
  H     -4.957375    0.999636    1.019241
  H     -9.966304    1.235041    1.293550
  H     -8.530597    2.476602    2.912931
  H     -6.068754    2.339979    2.772139
  S      0.795705    0.740224    0.000152
  C     -0.195909   -0.563189   -0.686035
  N      0.510570   -1.626911   -1.048235
  N      1.849111   -1.499852   -0.819641
  C      2.184307   -0.330002   -0.276335
  C     -1.628751   -0.458683   -0.827471
  N     -2.330071    0.609476   -0.469165
  N     -3.672100    0.476828   -0.697958
  C     -4.018426   -0.687413   -1.225106
  S     -2.620471   -1.757345   -1.505913
  C      8.919465    2.282983    2.081160
  C      7.952890    1.435606    1.457212
  C      6.691391    2.018055    1.338179
  S      6.704809    3.648764    1.998272
  C      8.394426    3.507062    2.420386
  C      5.608809    1.238663    0.821107
  C      5.865339   -0.036065    0.321606
  C      7.294663   -0.558189    0.184695
  O      8.232575    0.168097    1.076254
  C      4.690548   -0.702353   -0.112321
  C      3.531827    0.046205    0.060126
  S      3.901176    1.617801    0.776297
  C      7.804291   -0.338770   -1.259766
  H      9.949046    1.997948    2.263348
  H      4.679268   -1.698378   -0.540974
  H      7.774154    0.717750   -1.515303
  H      8.829166   -0.687285   -1.362719
  H      7.182081   -0.879291   -1.968952
  C      7.407226   -2.037436    0.586386
  H      7.057222   -2.186680    1.604593
  H      6.810247   -2.660625   -0.074757
  H      8.440858   -2.369154    0.528112
  H     -8.960625   -2.176397   -2.885629
  H      8.925369    4.325155    2.889639

 Multiplicity           Mult            ....    1
 Number of Electrons    NEL             ....  286
 Basis Dimension        Dim             .... 1273

ORBITAL ENERGIES
----------------

  NO   OCC          E(Eh)            E(eV)
   0   2.0000     -89.008463     -2422.0434
   1   2.0000     -89.006009     -2421.9766
   2   2.0000     -89.001738     -2421.8604
   3   2.0000     -88.992459     -2421.6079
   4   2.0000     -19.277323      -524.5626
   5   2.0000     -14.473798      -393.8521
   6   2.0000     -14.471074      -393.7779
   7   2.0000     -14.470354      -393.7584
   8   2.0000     -14.464053      -393.5869
   9   2.0000     -14.462888      -393.5552
  10   2.0000     -10.379802      -282.4488
  11   2.0000     -10.377859      -282.3959
  12   2.0000     -10.377642      -282.3900
  13   2.0000     -10.377305      -282.3808
  14   2.0000     -10.373280      -282.2713
  15   2.0000     -10.361745      -281.9574
  16   2.0000     -10.348239      -281.5899
  17   2.0000     -10.341166      -281.3974
  18   2.0000     -10.334347      -281.2119
  19   2.0000     -10.329576      -281.0820
  20   2.0000     -10.325979      -280.9842
  21   2.0000     -10.325637      -280.9749
  22   2.0000     -10.320236      -280.8279
  23   2.0000     -10.312344      -280.6131
  24   2.0000     -10.310019      -280.5499
  25   2.0000     -10.304626      -280.4031
  26   2.0000     -10.300229      -280.2835
  27   2.0000     -10.299003      -280.2501
  28   2.0000     -10.295703      -280.1603
  29   2.0000     -10.294392      -280.1246
  30   2.0000     -10.288518      -279.9648
  31   2.0000     -10.284018      -279.8424
  32   2.0000     -10.283052      -279.8161
  33   2.0000     -10.281504      -279.7739
  34   2.0000     -10.279024      -279.7065
  35   2.0000     -10.276900      -279.6487
  36   2.0000     -10.270348      -279.4704
  37   2.0000      -8.104710      -220.5404
  38   2.0000      -8.102237      -220.4731
  39   2.0000      -8.097932      -220.3559
  40   2.0000      -8.088331      -220.0947
  41   2.0000      -6.057847      -164.8424
  42   2.0000      -6.055327      -164.7738
  43   2.0000      -6.053936      -164.7360
  44   2.0000      -6.051684      -164.6747
  45   2.0000      -6.051406      -164.6671
  46   2.0000      -6.051311      -164.6645
  47   2.0000      -6.049316      -164.6103
  48   2.0000      -6.047274      -164.5547
  49   2.0000      -6.044725      -164.4853
  50   2.0000      -6.041822      -164.4063
  51   2.0000      -6.037659      -164.2931
  52   2.0000      -6.035104      -164.2235
  53   2.0000      -1.192567       -32.4514
  54   2.0000      -1.155416       -31.4405
  55   2.0000      -1.147374       -31.2216
  56   2.0000      -1.107553       -30.1380
  57   2.0000      -1.028194       -27.9786
  58   2.0000      -1.005437       -27.3593
  59   2.0000      -0.992917       -27.0186
  60   2.0000      -0.977753       -26.6060
  61   2.0000      -0.963770       -26.2255
  62   2.0000      -0.954793       -25.9812
  63   2.0000      -0.937660       -25.5150
  64   2.0000      -0.929587       -25.2953
  65   2.0000      -0.914698       -24.8902
  66   2.0000      -0.901383       -24.5279
  67   2.0000      -0.896100       -24.3841
  68   2.0000      -0.874588       -23.7987
  69   2.0000      -0.868460       -23.6320
  70   2.0000      -0.848071       -23.0772
  71   2.0000      -0.846448       -23.0330
  72   2.0000      -0.840824       -22.8800
  73   2.0000      -0.825596       -22.4656
  74   2.0000      -0.822347       -22.3772
  75   2.0000      -0.784562       -21.3490
  76   2.0000      -0.772646       -21.0248
  77   2.0000      -0.757991       -20.6260
  78   2.0000      -0.730100       -19.8670
  79   2.0000      -0.725045       -19.7295
  80   2.0000      -0.721879       -19.6433
  81   2.0000      -0.713639       -19.4191
  82   2.0000      -0.709006       -19.2930
  83   2.0000      -0.694808       -18.9067
  84   2.0000      -0.680370       -18.5138
  85   2.0000      -0.665144       -18.0995
  86   2.0000      -0.662901       -18.0385
  87   2.0000      -0.649598       -17.6764
  88   2.0000      -0.631177       -17.1752
  89   2.0000      -0.623547       -16.9676
  90   2.0000      -0.615751       -16.7554
  91   2.0000      -0.598646       -16.2900
  92   2.0000      -0.593529       -16.1507
  93   2.0000      -0.579664       -15.7735
  94   2.0000      -0.576587       -15.6897
  95   2.0000      -0.575883       -15.6706
  96   2.0000      -0.568736       -15.4761
  97   2.0000      -0.564832       -15.3699
  98   2.0000      -0.560428       -15.2500
  99   2.0000      -0.552876       -15.0445
 100   2.0000      -0.548754       -14.9324
 101   2.0000      -0.542336       -14.7577
 102   2.0000      -0.541029       -14.7221
 103   2.0000      -0.537790       -14.6340
 104   2.0000      -0.536066       -14.5871
 105   2.0000      -0.529181       -14.3998
 106   2.0000      -0.526355       -14.3229
 107   2.0000      -0.523970       -14.2579
 108   2.0000      -0.519732       -14.1426
 109   2.0000      -0.516262       -14.0482
 110   2.0000      -0.511764       -13.9258
 111   2.0000      -0.510445       -13.8899
 112   2.0000      -0.506037       -13.7700
 113   2.0000      -0.491799       -13.3825
 114   2.0000      -0.488108       -13.2821
 115   2.0000      -0.477088       -12.9822
 116   2.0000      -0.472105       -12.8466
 117   2.0000      -0.471358       -12.8263
 118   2.0000      -0.469379       -12.7724
 119   2.0000      -0.467860       -12.7311
 120   2.0000      -0.461502       -12.5581
 121   2.0000      -0.456185       -12.4134
 122   2.0000      -0.447013       -12.1638
 123   2.0000      -0.445651       -12.1268
 124   2.0000      -0.436538       -11.8788
 125   2.0000      -0.434004       -11.8099
 126   2.0000      -0.425366       -11.5748
 127   2.0000      -0.420813       -11.4509
 128   2.0000      -0.419429       -11.4132
 129   2.0000      -0.404206       -10.9990
 130   2.0000      -0.400351       -10.8941
 131   2.0000      -0.393328       -10.7030
 132   2.0000      -0.387335       -10.5399
 133   2.0000      -0.377312       -10.2672
 134   2.0000      -0.373292       -10.1578
 135   2.0000      -0.368121       -10.0171
 136   2.0000      -0.357308        -9.7229
 137   2.0000      -0.354081        -9.6350
 138   2.0000      -0.337352        -9.1798
 139   2.0000      -0.327339        -8.9074
 140   2.0000      -0.300517        -8.1775
 141   2.0000      -0.290820        -7.9136
 142   2.0000      -0.273505        -7.4424
 143   0.0000      -0.039091        -1.0637
 144   0.0000      -0.007643        -0.2080
 145   0.0000       0.020659         0.5621
 146   0.0000       0.038446         1.0462
 147   0.0000       0.045664         1.2426

MULLIKEN ATOMIC CHARGES
-----------------------
   0 C :   -0.175410
   1 C :   -0.131876
   2 C :   -0.029561
   3 C :    0.170111
   4 C :   -0.234222
   5 C :   -0.078385
   6 C :   -0.025415
   7 C :    0.188759
   8 N :   -0.303282
   9 C :   -0.227467
  10 C :   -0.097325
  11 C :   -0.282188
  12 C :    0.130639
  13 H :    0.129924
  14 H :    0.236546
  15 H :    0.127484
  16 H :    0.156285
  17 H :    0.112134
  18 H :    0.121516
  19 H :    0.118996
  20 S :    0.061400
  21 C :    0.118891
  22 N :   -0.165595
  23 N :   -0.150559
  24 C :    0.185665
  25 C :    0.087072
  26 N :   -0.176440
  27 N :   -0.188031
  28 C :    0.149812
  29 S :    0.063238
  30 C :   -0.249658
  31 C :    0.191223
  32 C :   -0.096515
  33 S :    0.060354
  34 C :   -0.170199
  35 C :    0.035905
  36 C :    0.084141
  37 C :    0.135049
  38 O :   -0.286167
  39 C :   -0.300681
  40 C :   -0.030184
  41 S :    0.053387
  42 C :   -0.363004
  43 H :    0.146057
  44 H :    0.167176
  45 H :    0.139308
  46 H :    0.132397
  47 H :    0.129137
  48 C :   -0.361497
  49 H :    0.139899
  50 H :    0.122107
  51 H :    0.139515
  52 H :    0.122217
  53 H :    0.167316
Sum of atomic charges:   -0.0000000

LOEWDIN ATOMIC CHARGES
----------------------
   0 C :   -0.157841
   1 C :   -0.091514
   2 C :   -0.077895
   3 C :   -0.144555
   4 C :   -0.136488
   5 C :   -0.139127
   6 C :   -0.028104
   7 C :   -0.143112
   8 N :    0.201456
   9 C :   -0.118084
  10 C :   -0.141513
  11 C :   -0.123271
  12 C :   -0.115971
  13 H :    0.145437
  14 H :    0.193492
  15 H :    0.147891
  16 H :    0.154093
  17 H :    0.142444
  18 H :    0.144468
  19 H :    0.144071
  20 S :    0.725440
  21 C :   -0.459079
  22 N :    0.048664
  23 N :    0.034679
  24 C :   -0.441160
  25 C :   -0.460838
  26 N :    0.042541
  27 N :    0.047812
  28 C :   -0.374198
  29 S :    0.736585
  30 C :   -0.171594
  31 C :   -0.256671
  32 C :   -0.361685
  33 S :    0.693746
  34 C :   -0.365568
  35 C :   -0.319198
  36 C :   -0.119989
  37 C :   -0.284818
  38 O :    0.282038
  39 C :   -0.095776
  40 C :   -0.367011
  41 S :    0.744040
  42 C :   -0.244199
  43 H :    0.148823
  44 H :    0.158142
  45 H :    0.129586
  46 H :    0.125716
  47 H :    0.128548
  48 C :   -0.244309
  49 H :    0.129611
  50 H :    0.127703
  51 H :    0.128510
  52 H :    0.145753
  53 H :    0.132276

  Mayer bond orders larger than 0.1
B(  0-C ,  1-C ) :   1.5380 B(  0-C ,  5-C ) :   1.3518 B(  0-C , 19-H ) :   0.9863
B(  1-C ,  2-C ) :   1.2671 B(  1-C , 16-H ) :   0.9357 B(  2-C ,  3-C ) :   1.3589
B(  2-C ,  6-C ) :   1.0824 B(  3-C ,  4-C ) :   1.3030 B(  3-C ,  8-N ) :   1.1138
B(  4-C ,  5-C ) :   1.4785 B(  4-C , 17-H ) :   0.9790 B(  5-C , 18-H ) :   0.9828
B(  6-C ,  7-C ) :   1.3217 B(  6-C , 12-C ) :   1.2415 B(  7-C ,  8-N ) :   1.1552
B(  7-C ,  9-C ) :   1.2859 B(  8-N , 14-H ) :   0.9129 B(  9-C , 10-C ) :   1.4689
B(  9-C , 52-H ) :   0.9744 B( 10-C , 11-C ) :   1.4245 B( 10-C , 15-H ) :   0.9790
B( 11-C , 12-C ) :   1.4019 B( 11-C , 13-H ) :   0.9597 B( 12-C , 28-C ) :   0.9500
B( 20-S , 21-C ) :   1.2946 B( 20-S , 24-C ) :   1.3073 B( 21-C , 22-N ) :   1.7096
B( 21-C , 25-C ) :   0.9397 B( 22-N , 23-N ) :   1.1527 B( 23-N , 24-C ) :   1.6904
B( 24-C , 40-C ) :   0.9817 B( 24-C , 41-S ) :  -0.1017 B( 25-C , 26-N ) :   1.7098
B( 25-C , 29-S ) :   1.3162 B( 26-N , 27-N ) :   1.1219 B( 27-N , 28-C ) :   1.6432
B( 28-C , 29-S ) :   1.2901 B( 30-C , 31-C ) :   1.2674 B( 30-C , 33-S ) :   0.1256
B( 30-C , 34-C ) :   1.6968 B( 30-C , 43-H ) :   0.9573 B( 31-C , 32-C ) :   1.4298
B( 31-C , 38-O ) :   1.1729 B( 32-C , 33-S ) :   1.2635 B( 32-C , 35-C ) :   0.9348
B( 33-S , 34-C ) :   1.2643 B( 34-C , 53-H ) :   0.9409 B( 35-C , 36-C ) :   1.4837
B( 35-C , 41-S ) :   1.3485 B( 36-C , 37-C ) :   0.9813 B( 36-C , 39-C ) :   1.2290
B( 36-C , 40-C ) :  -0.1275 B( 37-C , 38-O ) :   0.8665 B( 37-C , 42-C ) :   1.0064
B( 37-C , 48-C ) :   0.9619 B( 39-C , 40-C ) :   1.6543 B( 39-C , 41-S ) :   0.1170
B( 39-C , 44-H ) :   0.9391 B( 40-C , 41-S ) :   1.2391 B( 42-C , 45-H ) :   0.9641
B( 42-C , 46-H ) :   0.9725 B( 42-C , 47-H ) :   0.9631 B( 48-C , 49-H ) :   0.9791
B( 48-C , 50-H ) :   0.9593 B( 48-C , 51-H ) :   0.9737

Dispersion correction           -0.026498009
FINAL SINGLE POINT ENERGY     -2980.957527278339

DIPOLE MOMENT
-------------
                                X             Y             Z
Electronic contribution:     -6.79727       7.91153       0.71576
Nuclear contribution   :      6.80731      -8.20541      -0.87727
                        -----------------------------------------
Total Dipole Moment    :      0.01005      -0.29388      -0.16152
                        -----------------------------------------
Magnitude (a.u.)       :      0.33549
Magnitude (Debye)      :      0.85275

                             ****ORCA TERMINATED NORMALLY****
TOTAL RUN TIME: 0 days 0 hours 16 minutes 45 seconds 323 msec
