                         Program Version 4.0.0 -  RELEASE  -
|  1> #
|  2> !wB97X-D3 def2-TZVP def2/J RIJCOSX Grid5 FinalGrid6 TightSCF
|  3> %pal
|  4>  nprocs 24
|  5> end
|  6> %tddft
|  7>   Mode sTDDFT
|  8>   nroots 2
|  9>   Ethresh 10.0
| 10>   maxcore 5000
| 11>   triplets true
| 12> end
| 13> * xyz 0 1
| 14> C 5.47734327 0.84263663 2.61203574
| 15> C 4.58814293 0.54704637 1.58192340
| 16> C 5.07624906 -0.05790801 0.40804726
| 17> C 6.46615261 -0.35306289 0.32671617
| 18> C 7.36549626 -0.04994217 1.36034868
| 19> C 6.84905630 0.55363471 2.50419012
| 20> C 4.47935257 -0.52815976 -0.83277795
| 21> C 5.54520456 -1.10010193 -1.58924875
| 22> N 6.72728663 -0.96936356 -0.88465218
| 23> C 5.35899767 -1.70908487 -2.83897794
| 24> C 4.05916512 -1.75979865 -3.33829521
| 25> C 2.99144172 -1.20920632 -2.61883106
| 26> C 3.16509421 -0.57146719 -1.37516009
| 27> H 1.99311808 -1.25445833 -3.04806782
| 28> H 7.63226707 -1.30330079 -1.19249981
| 29> H 3.86787346 -2.22873120 -4.29929530
| 30> H 3.53398428 0.78625197 1.68688056
| 31> H 8.42335559 -0.28259789 1.27155786
| 32> H 7.51494851 0.80329137 3.32608674
| 33> H 5.10567993 1.31069533 3.51944858
| 34> S -2.89007050 -0.08812504 -0.31121990
| 35> C -4.01945908 0.90113567 0.62828340
| 36> N -3.41549585 1.84422010 1.34382675
| 37> N -2.05663610 1.85357959 1.20602959
| 38> C -1.60595103 0.91588190 0.38151926
| 39> C -0.20626245 0.71431304 0.06639220
| 40> N 0.78666212 1.44441517 0.55449637
| 41> N 2.01836439 1.05385304 0.10559003
| 42> C 1.99379771 0.02246287 -0.72288876
| 43> S 0.33724497 -0.56262542 -1.03667283
| 44> C -7.69023540 1.36871396 1.40898142
| 45> C -8.27271710 0.35224994 0.63057408
| 46> C -7.45994510 -0.48255298 -0.14734023
| 47> C -6.06849503 -0.31112575 -0.15489521
| 48> C -5.46503041 0.70542145 0.62138008
| 49> C -6.30453474 1.53465380 1.39753340
| 50> O -5.31465599 -1.14174199 -0.92303827
| 51> O -8.01569637 -1.48794716 -0.91947154
| 52> O -9.62979247 0.13819451 0.59917597
| 53> H -5.85121533 2.31751914 1.99653528
| 54> H -5.91122377 -1.76187265 -1.37178130
| 55> H -8.97638333 -1.45470433 -0.78881177
| 56> H -10.07871103 0.77363905 1.17303969
| 57> H 6.19433486 -2.13317840 -3.38902002
| 58> H -8.31790279 2.01734766 2.01295330
| 59> *
| 60> $new_job
| 61> #
| 62> !wB97X-D3 def2-TZVP def2/J RIJCOSX Grid5 FinalGrid6 TightSCF
| 63> %pal
| 64>  nprocs 24
| 65> end
| 66> %elprop
| 67>    dipole     true
| 68>    quadrupole true
| 69> end
| 70> %tddft
| 71>   Mode sTDDFT
| 72>   nroots 2
| 73>   Ethresh 10.0
| 74>   maxcore 5000
| 75> end
| 76> * xyz 0 1
| 77> C 5.47734327 0.84263663 2.61203574
| 78> C 4.58814293 0.54704637 1.58192340
| 79> C 5.07624906 -0.05790801 0.40804726
| 80> C 6.46615261 -0.35306289 0.32671617
| 81> C 7.36549626 -0.04994217 1.36034868
| 82> C 6.84905630 0.55363471 2.50419012
| 83> C 4.47935257 -0.52815976 -0.83277795
| 84> C 5.54520456 -1.10010193 -1.58924875
| 85> N 6.72728663 -0.96936356 -0.88465218
| 86> C 5.35899767 -1.70908487 -2.83897794
| 87> C 4.05916512 -1.75979865 -3.33829521
| 88> C 2.99144172 -1.20920632 -2.61883106
| 89> C 3.16509421 -0.57146719 -1.37516009
| 90> H 1.99311808 -1.25445833 -3.04806782
| 91> H 7.63226707 -1.30330079 -1.19249981
| 92> H 3.86787346 -2.22873120 -4.29929530
| 93> H 3.53398428 0.78625197 1.68688056
| 94> H 8.42335559 -0.28259789 1.27155786
| 95> H 7.51494851 0.80329137 3.32608674
| 96> H 5.10567993 1.31069533 3.51944858
| 97> S -2.89007050 -0.08812504 -0.31121990
| 98> C -4.01945908 0.90113567 0.62828340
| 99> N -3.41549585 1.84422010 1.34382675
|100> N -2.05663610 1.85357959 1.20602959
|101> C -1.60595103 0.91588190 0.38151926
|102> C -0.20626245 0.71431304 0.06639220
|103> N 0.78666212 1.44441517 0.55449637
|104> N 2.01836439 1.05385304 0.10559003
|105> C 1.99379771 0.02246287 -0.72288876
|106> S 0.33724497 -0.56262542 -1.03667283
|107> C -7.69023540 1.36871396 1.40898142
|108> C -8.27271710 0.35224994 0.63057408
|109> C -7.45994510 -0.48255298 -0.14734023
|110> C -6.06849503 -0.31112575 -0.15489521
|111> C -5.46503041 0.70542145 0.62138008
|112> C -6.30453474 1.53465380 1.39753340
|113> O -5.31465599 -1.14174199 -0.92303827
|114> O -8.01569637 -1.48794716 -0.91947154
|115> O -9.62979247 0.13819451 0.59917597
|116> H -5.85121533 2.31751914 1.99653528
|117> H -5.91122377 -1.76187265 -1.37178130
|118> H -8.97638333 -1.45470433 -0.78881177
|119> H -10.07871103 0.77363905 1.17303969
|120> H 6.19433486 -2.13317840 -3.38902002
|121> H -8.31790279 2.01734766 2.01295330
|122> *
|123>
|124>                          ****END OF INPUT****
 Total Charge           Charge          ....    0
 Multiplicity           Mult            ....    1
 Number of Electrons    NEL             ....  236
Dispersion correction           -0.019915542
FINAL SINGLE POINT ENERGY     -2142.075252428038

CARTESIAN COORDINATES (ANGSTROEM)
---------------------------------
  C      5.477343    0.842637    2.612036
  C      4.588143    0.547046    1.581923
  C      5.076249   -0.057908    0.408047
  C      6.466153   -0.353063    0.326716
  C      7.365496   -0.049942    1.360349
  C      6.849056    0.553635    2.504190
  C      4.479353   -0.528160   -0.832778
  C      5.545205   -1.100102   -1.589249
  N      6.727287   -0.969364   -0.884652
  C      5.358998   -1.709085   -2.838978
  C      4.059165   -1.759799   -3.338295
  C      2.991442   -1.209206   -2.618831
  C      3.165094   -0.571467   -1.375160
  H      1.993118   -1.254458   -3.048068
  H      7.632267   -1.303301   -1.192500
  H      3.867873   -2.228731   -4.299295
  H      3.533984    0.786252    1.686881
  H      8.423356   -0.282598    1.271558
  H      7.514949    0.803291    3.326087
  H      5.105680    1.310695    3.519449
  S     -2.890071   -0.088125   -0.311220
  C     -4.019459    0.901136    0.628283
  N     -3.415496    1.844220    1.343827
  N     -2.056636    1.853580    1.206030
  C     -1.605951    0.915882    0.381519
  C     -0.206262    0.714313    0.066392
  N      0.786662    1.444415    0.554496
  N      2.018364    1.053853    0.105590
  C      1.993798    0.022463   -0.722889
  S      0.337245   -0.562625   -1.036673
  C     -7.690235    1.368714    1.408981
  C     -8.272717    0.352250    0.630574
  C     -7.459945   -0.482553   -0.147340
  C     -6.068495   -0.311126   -0.154895
  C     -5.465030    0.705421    0.621380
  C     -6.304535    1.534654    1.397533
  O     -5.314656   -1.141742   -0.923038
  O     -8.015696   -1.487947   -0.919472
  O     -9.629792    0.138195    0.599176
  H     -5.851215    2.317519    1.996535
  H     -5.911224   -1.761873   -1.371781
  H     -8.976383   -1.454704   -0.788812
  H    -10.078711    0.773639    1.173040
  H      6.194335   -2.133178   -3.389020
  H     -8.317903    2.017348    2.012953

 Multiplicity           Mult            ....    1
 Number of Electrons    NEL             ....  236
 Basis Dimension        Dim             .... 1082

ORBITAL ENERGIES
----------------

  NO   OCC          E(Eh)            E(eV)
   0   2.0000     -89.003089     -2421.8972
   1   2.0000     -89.001257     -2421.8473
   2   2.0000     -19.299207      -525.1581
   3   2.0000     -19.291225      -524.9409
   4   2.0000     -19.289652      -524.8981
   5   2.0000     -14.468025      -393.6950
   6   2.0000     -14.462403      -393.5420
   7   2.0000     -14.460812      -393.4987
   8   2.0000     -14.459538      -393.4640
   9   2.0000     -14.456449      -393.3800
  10   2.0000     -10.374776      -282.3120
  11   2.0000     -10.373909      -282.2884
  12   2.0000     -10.372468      -282.2492
  13   2.0000     -10.370748      -282.2024
  14   2.0000     -10.370214      -282.1879
  15   2.0000     -10.365448      -282.0582
  16   2.0000     -10.363015      -281.9920
  17   2.0000     -10.332399      -281.1589
  18   2.0000     -10.323117      -280.9063
  19   2.0000     -10.318339      -280.7763
  20   2.0000     -10.317514      -280.7538
  21   2.0000     -10.305427      -280.4249
  22   2.0000     -10.302550      -280.3466
  23   2.0000     -10.302506      -280.3454
  24   2.0000     -10.297070      -280.1975
  25   2.0000     -10.294074      -280.1160
  26   2.0000     -10.292551      -280.0746
  27   2.0000     -10.285881      -279.8930
  28   2.0000     -10.281402      -279.7712
  29   2.0000     -10.280377      -279.7433
  30   2.0000     -10.273792      -279.5641
  31   2.0000     -10.267258      -279.3863
  32   2.0000      -8.099859      -220.4084
  33   2.0000      -8.097543      -220.3453
  34   2.0000      -6.052784      -164.7046
  35   2.0000      -6.050714      -164.6483
  36   2.0000      -6.049127      -164.6051
  37   2.0000      -6.046977      -164.5466
  38   2.0000      -6.046660      -164.5380
  39   2.0000      -6.044590      -164.4816
  40   2.0000      -1.223233       -33.2859
  41   2.0000      -1.209223       -32.9046
  42   2.0000      -1.184876       -32.2421
  43   2.0000      -1.148051       -31.2401
  44   2.0000      -1.138871       -30.9902
  45   2.0000      -1.105304       -30.0768
  46   2.0000      -0.997900       -27.1542
  47   2.0000      -0.988288       -26.8927
  48   2.0000      -0.969604       -26.3843
  49   2.0000      -0.960298       -26.1310
  50   2.0000      -0.940284       -25.5864
  51   2.0000      -0.935377       -25.4529
  52   2.0000      -0.907616       -24.6975
  53   2.0000      -0.898834       -24.4585
  54   2.0000      -0.877416       -23.8757
  55   2.0000      -0.875593       -23.8261
  56   2.0000      -0.870103       -23.6767
  57   2.0000      -0.843616       -22.9560
  58   2.0000      -0.838400       -22.8140
  59   2.0000      -0.786133       -21.3918
  60   2.0000      -0.778067       -21.1723
  61   2.0000      -0.767088       -20.8735
  62   2.0000      -0.751767       -20.4566
  63   2.0000      -0.727816       -19.8049
  64   2.0000      -0.722920       -19.6716
  65   2.0000      -0.713539       -19.4164
  66   2.0000      -0.709979       -19.3195
  67   2.0000      -0.693570       -18.8730
  68   2.0000      -0.683133       -18.5890
  69   2.0000      -0.667856       -18.1733
  70   2.0000      -0.654263       -17.8034
  71   2.0000      -0.645721       -17.5710
  72   2.0000      -0.623908       -16.9774
  73   2.0000      -0.616947       -16.7880
  74   2.0000      -0.613835       -16.7033
  75   2.0000      -0.599747       -16.3199
  76   2.0000      -0.595141       -16.1946
  77   2.0000      -0.577603       -15.7174
  78   2.0000      -0.576157       -15.6780
  79   2.0000      -0.569586       -15.4992
  80   2.0000      -0.561124       -15.2690
  81   2.0000      -0.560243       -15.2450
  82   2.0000      -0.553265       -15.0551
  83   2.0000      -0.547856       -14.9079
  84   2.0000      -0.542892       -14.7728
  85   2.0000      -0.537179       -14.6174
  86   2.0000      -0.535710       -14.5774
  87   2.0000      -0.527739       -14.3605
  88   2.0000      -0.524492       -14.2721
  89   2.0000      -0.523873       -14.2553
  90   2.0000      -0.520505       -14.1637
  91   2.0000      -0.519337       -14.1319
  92   2.0000      -0.514883       -14.0107
  93   2.0000      -0.498863       -13.5747
  94   2.0000      -0.489900       -13.3309
  95   2.0000      -0.476189       -12.9578
  96   2.0000      -0.474370       -12.9083
  97   2.0000      -0.474152       -12.9023
  98   2.0000      -0.469532       -12.7766
  99   2.0000      -0.465632       -12.6705
 100   2.0000      -0.454197       -12.3593
 101   2.0000      -0.442865       -12.0510
 102   2.0000      -0.439848       -11.9689
 103   2.0000      -0.431695       -11.7470
 104   2.0000      -0.413450       -11.2505
 105   2.0000      -0.401274       -10.9192
 106   2.0000      -0.399592       -10.8735
 107   2.0000      -0.394221       -10.7273
 108   2.0000      -0.387483       -10.5440
 109   2.0000      -0.379299       -10.3213
 110   2.0000      -0.371061       -10.0971
 111   2.0000      -0.362160        -9.8549
 112   2.0000      -0.352375        -9.5886
 113   2.0000      -0.336559        -9.1582
 114   2.0000      -0.323887        -8.8134
 115   2.0000      -0.306452        -8.3390
 116   2.0000      -0.296454        -8.0669
 117   2.0000      -0.286376        -7.7927
 118   0.0000      -0.026843        -0.7304
 119   0.0000       0.010634         0.2894
 120   0.0000       0.034430         0.9369
 121   0.0000       0.043784         1.1914
 122   0.0000       0.056800         1.5456

MULLIKEN ATOMIC CHARGES
-----------------------
   0 C :   -0.180547
   1 C :   -0.139619
   2 C :   -0.026494
   3 C :    0.175585
   4 C :   -0.240229
   5 C :   -0.073960
   6 C :   -0.029991
   7 C :    0.190329
   8 N :   -0.303084
   9 C :   -0.225449
  10 C :   -0.095250
  11 C :   -0.283243
  12 C :    0.132180
  13 H :    0.122653
  14 H :    0.236424
  15 H :    0.125431
  16 H :    0.164806
  17 H :    0.113214
  18 H :    0.121129
  19 H :    0.121028
  20 S :    0.030376
  21 C :    0.245766
  22 N :   -0.123994
  23 N :   -0.152868
  24 C :    0.074141
  25 C :    0.125909
  26 N :   -0.129009
  27 N :   -0.180961
  28 C :    0.181965
  29 S :   -0.007965
  30 C :   -0.209552
  31 C :    0.275255
  32 C :    0.107432
  33 C :    0.157979
  34 C :   -0.156949
  35 C :   -0.229424
  36 O :   -0.434536
  37 O :   -0.473721
  38 O :   -0.468156
  39 H :    0.166174
  40 H :    0.349145
  41 H :    0.353618
  42 H :    0.345494
  43 H :    0.120955
  44 H :    0.128013
Sum of atomic charges:   -0.0000000

LOEWDIN ATOMIC CHARGES
----------------------
   0 C :   -0.156795
   1 C :   -0.090063
   2 C :   -0.077848
   3 C :   -0.144889
   4 C :   -0.137329
   5 C :   -0.139091
   6 C :   -0.027876
   7 C :   -0.143348
   8 N :    0.201055
   9 C :   -0.119310
  10 C :   -0.142853
  11 C :   -0.125328
  12 C :   -0.115955
  13 H :    0.144225
  14 H :    0.193273
  15 H :    0.147305
  16 H :    0.155382
  17 H :    0.142199
  18 H :    0.144341
  19 H :    0.144759
  20 S :    0.718345
  21 C :   -0.388611
  22 N :    0.041569
  23 N :    0.069643
  24 C :   -0.465968
  25 C :   -0.456547
  26 N :    0.068725
  27 N :    0.053845
  28 C :   -0.375263
  29 S :    0.695281
  30 C :   -0.150770
  31 C :   -0.247234
  32 C :   -0.232959
  33 C :   -0.209804
  34 C :   -0.144236
  35 C :   -0.081014
  36 O :    0.092226
  37 O :    0.044196
  38 O :    0.057024
  39 H :    0.161350
  40 H :    0.204779
  41 H :    0.202806
  42 H :    0.199487
  43 H :    0.145374
  44 H :    0.145902

  Mayer bond orders larger than 0.1
B(  0-C ,  1-C ) :   1.5396 B(  0-C ,  5-C ) :   1.3511 B(  0-C , 19-H ) :   0.9877
B(  1-C ,  2-C ) :   1.2603 B(  1-C , 16-H ) :   0.9352 B(  2-C ,  3-C ) :   1.3503
B(  2-C ,  6-C ) :   1.0769 B(  3-C ,  4-C ) :   1.3022 B(  3-C ,  8-N ) :   1.1131
B(  4-C ,  5-C ) :   1.4800 B(  4-C , 17-H ) :   0.9776 B(  5-C , 18-H ) :   0.9823
B(  6-C ,  7-C ) :   1.3157 B(  6-C , 12-C ) :   1.2412 B(  7-C ,  8-N ) :   1.1554
B(  7-C ,  9-C ) :   1.2873 B(  8-N , 14-H ) :   0.9131 B(  9-C , 10-C ) :   1.4671
B(  9-C , 43-H ) :   0.9739 B( 10-C , 11-C ) :   1.4184 B( 10-C , 15-H ) :   0.9812
B( 11-C , 12-C ) :   1.4013 B( 11-C , 13-H ) :   0.9671 B( 12-C , 28-C ) :   0.9328
B( 20-S , 21-C ) :   1.2815 B( 20-S , 24-C ) :   1.2648 B( 21-C , 22-N ) :   1.6844
B( 21-C , 34-C ) :   0.9794 B( 22-N , 23-N ) :   1.1400 B( 23-N , 24-C ) :   1.7178
B( 24-C , 25-C ) :   0.9976 B( 25-C , 26-N ) :   1.7140 B( 25-C , 29-S ) :   1.2717
B( 26-N , 27-N ) :   1.0865 B( 27-N , 28-C ) :   1.6556 B( 28-C , 29-S ) :   1.2689
B( 30-C , 31-C ) :   1.3137 B( 30-C , 35-C ) :   1.5088 B( 30-C , 44-H ) :   0.9480
B( 31-C , 32-C ) :   1.3604 B( 31-C , 38-O ) :   1.0477 B( 32-C , 33-C ) :   1.4227
B( 32-C , 37-O ) :   1.0825 B( 33-C , 34-C ) :   1.3615 B( 33-C , 36-O ) :   1.1298
B( 34-C , 35-C ) :   1.4045 B( 35-C , 39-H ) :   0.9385 B( 36-O , 40-H ) :   0.8515
B( 37-O , 41-H ) :   0.8575 B( 38-O , 42-H ) :   0.8719

Dispersion correction           -0.019915542
FINAL SINGLE POINT ENERGY     -2142.075252385317

DIPOLE MOMENT
-------------
                                X             Y             Z
Electronic contribution:    -11.14045       0.82805      -2.75339
Nuclear contribution   :      9.64743      -2.62153       1.56361
                        -----------------------------------------
Total Dipole Moment    :     -1.49301      -1.79347      -1.18978
                        -----------------------------------------
Magnitude (a.u.)       :      2.61939
Magnitude (Debye)      :      6.65796

                             ****ORCA TERMINATED NORMALLY****
TOTAL RUN TIME: 0 days 0 hours 10 minutes 38 seconds 664 msec
