                         Program Version 4.0.0 -  RELEASE  -
|  1> #
|  2> !wB97X-D3 def2-TZVP def2/J RIJCOSX Grid5 FinalGrid6 TightSCF
|  3> %pal
|  4>  nprocs 24
|  5> end
|  6> %tddft
|  7>   Mode sTDDFT
|  8>   nroots 2
|  9>   Ethresh 10.0
| 10>   maxcore 5000
| 11>   triplets true
| 12> end
| 13> * xyz 0 1
| 14> C -4.63139903 -1.88683150 3.76975891
| 15> C -3.72896602 -1.21133316 2.95219297
| 16> C -4.10387331 -0.89211662 1.63380794
| 17> C -5.39134313 -1.29465411 1.17953124
| 18> C -6.30547576 -1.96995560 2.00305722
| 19> C -5.90621714 -2.25703536 3.30584437
| 20> C -3.45094501 -0.24261503 0.50815203
| 21> C -4.37445387 -0.31487649 -0.57638697
| 22> N -5.53762530 -0.92835065 -0.14659846
| 23> C -4.08192224 0.16147537 -1.86243886
| 24> C -2.81721042 0.70719947 -2.07237096
| 25> C -1.88899314 0.78981753 -1.02648891
| 26> C -2.17928087 0.34537658 0.27564188
| 27> H -0.91406523 1.23146122 -1.21387008
| 28> H -6.34748180 -1.11824286 -0.72400586
| 29> H -2.54658366 1.07761233 -3.05716005
| 30> H -2.74997745 -0.93756151 3.33326128
| 31> H -7.28472430 -2.26326520 1.63419337
| 32> H -6.58677488 -2.77997982 3.97257003
| 33> H -4.34718971 -2.13459836 4.78891105
| 34> C 4.10276021 0.70870337 -0.23592221
| 35> N 2.79723246 0.67706235 0.12739536
| 36> C 2.51614497 0.86888429 1.43615933
| 37> N 3.46710375 1.08721204 2.37933585
| 38> C 4.73915329 1.10223724 1.93674584
| 39> N 5.10710663 0.92082393 0.65532772
| 40> C 1.08690820 0.84083414 1.85720927
| 41> N 0.15134589 0.59551720 0.91336301
| 42> C -1.14549297 0.56735677 1.31430919
| 43> N -1.51321293 0.79762878 2.60213976
| 44> C -0.51883280 1.04039499 3.47611339
| 45> N 0.79017043 1.06696397 3.16247469
| 46> H -0.79755575 1.23238616 4.52332179
| 47> H 5.53509146 1.27587514 2.67652284
| 48> C 5.09183771 0.11781444 -4.38133673
| 49> C 6.10456613 0.33568932 -3.42774221
| 50> C 5.78915269 0.52890275 -2.07542338
| 51> C 4.44524161 0.50464415 -1.66335168
| 52> C 3.42302465 0.28791027 -2.60402889
| 53> C 3.75050264 0.09639806 -3.95365892
| 54> O 7.40579272 0.36147318 -3.81050730
| 55> O 2.75370329 -0.11072897 -4.85033100
| 56> H 2.38652731 0.26848801 -2.28520899
| 57> H 7.48387962 0.21567520 -4.76195338
| 58> H 3.11403927 -0.22941300 -5.73839731
| 59> H 6.57776210 0.69608136 -1.35002123
| 60> H -4.81063436 0.09507449 -2.66582211
| 61> H 5.34138404 -0.03151585 -5.43001483
| 62> *
| 63> $new_job
| 64> #
| 65> !wB97X-D3 def2-TZVP def2/J RIJCOSX Grid5 FinalGrid6 TightSCF
| 66> %pal
| 67>  nprocs 24
| 68> end
| 69> %elprop
| 70>    dipole     true
| 71>    quadrupole true
| 72> end
| 73> %tddft
| 74>   Mode sTDDFT
| 75>   nroots 2
| 76>   Ethresh 10.0
| 77>   maxcore 5000
| 78> end
| 79> * xyz 0 1
| 80> C -4.63139903 -1.88683150 3.76975891
| 81> C -3.72896602 -1.21133316 2.95219297
| 82> C -4.10387331 -0.89211662 1.63380794
| 83> C -5.39134313 -1.29465411 1.17953124
| 84> C -6.30547576 -1.96995560 2.00305722
| 85> C -5.90621714 -2.25703536 3.30584437
| 86> C -3.45094501 -0.24261503 0.50815203
| 87> C -4.37445387 -0.31487649 -0.57638697
| 88> N -5.53762530 -0.92835065 -0.14659846
| 89> C -4.08192224 0.16147537 -1.86243886
| 90> C -2.81721042 0.70719947 -2.07237096
| 91> C -1.88899314 0.78981753 -1.02648891
| 92> C -2.17928087 0.34537658 0.27564188
| 93> H -0.91406523 1.23146122 -1.21387008
| 94> H -6.34748180 -1.11824286 -0.72400586
| 95> H -2.54658366 1.07761233 -3.05716005
| 96> H -2.74997745 -0.93756151 3.33326128
| 97> H -7.28472430 -2.26326520 1.63419337
| 98> H -6.58677488 -2.77997982 3.97257003
| 99> H -4.34718971 -2.13459836 4.78891105
|100> C 4.10276021 0.70870337 -0.23592221
|101> N 2.79723246 0.67706235 0.12739536
|102> C 2.51614497 0.86888429 1.43615933
|103> N 3.46710375 1.08721204 2.37933585
|104> C 4.73915329 1.10223724 1.93674584
|105> N 5.10710663 0.92082393 0.65532772
|106> C 1.08690820 0.84083414 1.85720927
|107> N 0.15134589 0.59551720 0.91336301
|108> C -1.14549297 0.56735677 1.31430919
|109> N -1.51321293 0.79762878 2.60213976
|110> C -0.51883280 1.04039499 3.47611339
|111> N 0.79017043 1.06696397 3.16247469
|112> H -0.79755575 1.23238616 4.52332179
|113> H 5.53509146 1.27587514 2.67652284
|114> C 5.09183771 0.11781444 -4.38133673
|115> C 6.10456613 0.33568932 -3.42774221
|116> C 5.78915269 0.52890275 -2.07542338
|117> C 4.44524161 0.50464415 -1.66335168
|118> C 3.42302465 0.28791027 -2.60402889
|119> C 3.75050264 0.09639806 -3.95365892
|120> O 7.40579272 0.36147318 -3.81050730
|121> O 2.75370329 -0.11072897 -4.85033100
|122> H 2.38652731 0.26848801 -2.28520899
|123> H 7.48387962 0.21567520 -4.76195338
|124> H 3.11403927 -0.22941300 -5.73839731
|125> H 6.57776210 0.69608136 -1.35002123
|126> H -4.81063436 0.09507449 -2.66582211
|127> H 5.34138404 -0.03151585 -5.43001483
|128> *
|129>
|130>                          ****END OF INPUT****
 Total Charge           Charge          ....    0
 Multiplicity           Mult            ....    1
 Number of Electrons    NEL             ....  224
Dispersion correction           -0.021056944
FINAL SINGLE POINT ENERGY     -1457.417176473992

CARTESIAN COORDINATES (ANGSTROEM)
---------------------------------
  C     -4.631399   -1.886831    3.769759
  C     -3.728966   -1.211333    2.952193
  C     -4.103873   -0.892117    1.633808
  C     -5.391343   -1.294654    1.179531
  C     -6.305476   -1.969956    2.003057
  C     -5.906217   -2.257035    3.305844
  C     -3.450945   -0.242615    0.508152
  C     -4.374454   -0.314876   -0.576387
  N     -5.537625   -0.928351   -0.146598
  C     -4.081922    0.161475   -1.862439
  C     -2.817210    0.707199   -2.072371
  C     -1.888993    0.789818   -1.026489
  C     -2.179281    0.345377    0.275642
  H     -0.914065    1.231461   -1.213870
  H     -6.347482   -1.118243   -0.724006
  H     -2.546584    1.077612   -3.057160
  H     -2.749977   -0.937562    3.333261
  H     -7.284724   -2.263265    1.634193
  H     -6.586775   -2.779980    3.972570
  H     -4.347190   -2.134598    4.788911
  C      4.102760    0.708703   -0.235922
  N      2.797232    0.677062    0.127395
  C      2.516145    0.868884    1.436159
  N      3.467104    1.087212    2.379336
  C      4.739153    1.102237    1.936746
  N      5.107107    0.920824    0.655328
  C      1.086908    0.840834    1.857209
  N      0.151346    0.595517    0.913363
  C     -1.145493    0.567357    1.314309
  N     -1.513213    0.797629    2.602140
  C     -0.518833    1.040395    3.476113
  N      0.790170    1.066964    3.162475
  H     -0.797556    1.232386    4.523322
  H      5.535091    1.275875    2.676523
  C      5.091838    0.117814   -4.381337
  C      6.104566    0.335689   -3.427742
  C      5.789153    0.528903   -2.075423
  C      4.445242    0.504644   -1.663352
  C      3.423025    0.287910   -2.604029
  C      3.750503    0.096398   -3.953659
  O      7.405793    0.361473   -3.810507
  O      2.753703   -0.110729   -4.850331
  H      2.386527    0.268488   -2.285209
  H      7.483880    0.215675   -4.761953
  H      3.114039   -0.229413   -5.738397
  H      6.577762    0.696081   -1.350021
  H     -4.810634    0.095074   -2.665822
  H      5.341384   -0.031516   -5.430015

 Multiplicity           Mult            ....    1
 Number of Electrons    NEL             ....  224
 Basis Dimension        Dim             .... 1113

ORBITAL ENERGIES
----------------

  NO   OCC          E(Eh)            E(eV)
   0   2.0000     -19.273337      -524.4542
   1   2.0000     -19.273253      -524.4519
   2   2.0000     -14.467288      -393.6749
   3   2.0000     -14.444737      -393.0613
   4   2.0000     -14.444341      -393.0505
   5   2.0000     -14.443646      -393.0316
   6   2.0000     -14.443461      -393.0266
   7   2.0000     -14.443401      -393.0249
   8   2.0000     -14.442856      -393.0101
   9   2.0000     -10.388364      -282.6817
  10   2.0000     -10.387629      -282.6618
  11   2.0000     -10.386344      -282.6268
  12   2.0000     -10.385771      -282.6112
  13   2.0000     -10.375163      -282.3225
  14   2.0000     -10.374888      -282.3151
  15   2.0000     -10.360083      -281.9122
  16   2.0000     -10.359849      -281.9058
  17   2.0000     -10.329048      -281.0677
  18   2.0000     -10.324333      -280.9394
  19   2.0000     -10.309856      -280.5454
  20   2.0000     -10.305897      -280.4377
  21   2.0000     -10.299441      -280.2620
  22   2.0000     -10.295868      -280.1648
  23   2.0000     -10.294395      -280.1247
  24   2.0000     -10.287976      -279.9501
  25   2.0000     -10.287240      -279.9300
  26   2.0000     -10.283922      -279.8397
  27   2.0000     -10.283396      -279.8254
  28   2.0000     -10.283038      -279.8157
  29   2.0000     -10.282051      -279.7888
  30   2.0000     -10.281328      -279.7692
  31   2.0000     -10.279274      -279.7133
  32   2.0000     -10.271710      -279.5074
  33   2.0000      -1.193218       -32.4691
  34   2.0000      -1.190784       -32.4029
  35   2.0000      -1.148744       -31.2589
  36   2.0000      -1.135255       -30.8919
  37   2.0000      -1.104328       -30.0503
  38   2.0000      -1.036830       -28.2136
  39   2.0000      -1.026553       -27.9339
  40   2.0000      -1.019007       -27.7286
  41   2.0000      -1.006489       -27.3880
  42   2.0000      -0.973079       -26.4788
  43   2.0000      -0.970259       -26.4021
  44   2.0000      -0.961771       -26.1711
  45   2.0000      -0.900969       -24.5166
  46   2.0000      -0.886139       -24.1131
  47   2.0000      -0.880523       -23.9602
  48   2.0000      -0.863779       -23.5046
  49   2.0000      -0.850479       -23.1427
  50   2.0000      -0.840879       -22.8815
  51   2.0000      -0.838022       -22.8037
  52   2.0000      -0.807355       -21.9692
  53   2.0000      -0.793820       -21.6009
  54   2.0000      -0.770942       -20.9784
  55   2.0000      -0.756760       -20.5925
  56   2.0000      -0.740345       -20.1458
  57   2.0000      -0.725241       -19.7348
  58   2.0000      -0.718004       -19.5379
  59   2.0000      -0.712121       -19.3778
  60   2.0000      -0.697153       -18.9705
  61   2.0000      -0.674217       -18.3464
  62   2.0000      -0.668049       -18.1785
  63   2.0000      -0.653020       -17.7696
  64   2.0000      -0.651411       -17.7258
  65   2.0000      -0.637518       -17.3477
  66   2.0000      -0.627241       -17.0681
  67   2.0000      -0.614747       -16.7281
  68   2.0000      -0.610823       -16.6213
  69   2.0000      -0.605504       -16.4766
  70   2.0000      -0.587219       -15.9790
  71   2.0000      -0.580177       -15.7874
  72   2.0000      -0.568479       -15.4691
  73   2.0000      -0.562810       -15.3148
  74   2.0000      -0.556692       -15.1483
  75   2.0000      -0.551878       -15.0174
  76   2.0000      -0.543959       -14.8019
  77   2.0000      -0.541785       -14.7427
  78   2.0000      -0.538088       -14.6421
  79   2.0000      -0.535535       -14.5726
  80   2.0000      -0.532387       -14.4870
  81   2.0000      -0.527645       -14.3580
  82   2.0000      -0.523481       -14.2447
  83   2.0000      -0.520884       -14.1740
  84   2.0000      -0.518186       -14.1006
  85   2.0000      -0.506053       -13.7704
  86   2.0000      -0.491422       -13.3723
  87   2.0000      -0.488482       -13.2923
  88   2.0000      -0.478522       -13.0213
  89   2.0000      -0.470839       -12.8122
  90   2.0000      -0.469602       -12.7785
  91   2.0000      -0.466085       -12.6828
  92   2.0000      -0.463628       -12.6160
  93   2.0000      -0.460642       -12.5347
  94   2.0000      -0.452701       -12.3186
  95   2.0000      -0.445470       -12.1219
  96   2.0000      -0.442965       -12.0537
  97   2.0000      -0.439404       -11.9568
  98   2.0000      -0.429596       -11.6899
  99   2.0000      -0.415474       -11.3056
 100   2.0000      -0.404559       -11.0086
 101   2.0000      -0.393027       -10.6948
 102   2.0000      -0.379644       -10.3306
 103   2.0000      -0.376867       -10.2551
 104   2.0000      -0.369530       -10.0554
 105   2.0000      -0.364412        -9.9162
 106   2.0000      -0.352239        -9.5849
 107   2.0000      -0.342249        -9.3131
 108   2.0000      -0.331898        -9.0314
 109   2.0000      -0.309031        -8.4092
 110   2.0000      -0.298743        -8.1292
 111   2.0000      -0.289182        -7.8690
 112   0.0000      -0.033306        -0.9063
 113   0.0000      -0.007026        -0.1912
 114   0.0000      -0.003305        -0.0899
 115   0.0000       0.041022         1.1163
 116   0.0000       0.055513         1.5106

MULLIKEN ATOMIC CHARGES
-----------------------
   0 C :   -0.170975
   1 C :   -0.126291
   2 C :   -0.026149
   3 C :    0.193097
   4 C :   -0.246387
   5 C :   -0.077615
   6 C :   -0.008097
   7 C :    0.188659
   8 N :   -0.302629
   9 C :   -0.226886
  10 C :   -0.077611
  11 C :   -0.251863
  12 C :    0.133201
  13 H :    0.152905
  14 H :    0.236136
  15 H :    0.126404
  16 H :    0.133541
  17 H :    0.113724
  18 H :    0.121497
  19 H :    0.114462
  20 C :    0.372964
  21 N :   -0.278252
  22 C :    0.202561
  23 N :   -0.257671
  24 C :    0.106056
  25 N :   -0.299695
  26 C :    0.229348
  27 N :   -0.290431
  28 C :    0.273304
  29 N :   -0.335975
  30 C :    0.120104
  31 N :   -0.257825
  32 H :    0.155617
  33 H :    0.153969
  34 C :   -0.276904
  35 C :    0.281175
  36 C :   -0.314837
  37 C :    0.070971
  38 C :   -0.333639
  39 C :    0.282091
  40 O :   -0.407197
  41 O :   -0.407107
  42 H :    0.181368
  43 H :    0.327249
  44 H :    0.326815
  45 H :    0.155665
  46 H :    0.117423
  47 H :    0.103730
Sum of atomic charges:   -0.0000000

LOEWDIN ATOMIC CHARGES
----------------------
   0 C :   -0.160883
   1 C :   -0.096262
   2 C :   -0.077848
   3 C :   -0.144736
   4 C :   -0.135565
   5 C :   -0.141088
   6 C :   -0.031013
   7 C :   -0.144739
   8 N :    0.199691
   9 C :   -0.117711
  10 C :   -0.140754
  11 C :   -0.096574
  12 C :   -0.077078
  13 H :    0.156878
  14 H :    0.192909
  15 H :    0.147291
  16 H :    0.149980
  17 H :    0.142589
  18 H :    0.144260
  19 H :    0.142758
  20 C :   -0.192861
  21 N :    0.176561
  22 C :   -0.217892
  23 N :    0.135551
  24 C :   -0.224863
  25 N :    0.126616
  26 C :   -0.219166
  27 N :    0.176924
  28 C :   -0.192053
  29 N :    0.128543
  30 C :   -0.227761
  31 N :    0.135067
  32 H :    0.142837
  33 H :    0.142497
  34 C :   -0.141937
  35 C :   -0.268428
  36 C :   -0.085971
  37 C :   -0.112624
  38 C :   -0.083558
  39 C :   -0.268094
  40 O :    0.086748
  41 O :    0.086707
  42 H :    0.162191
  43 H :    0.190357
  44 H :    0.190184
  45 H :    0.159298
  46 H :    0.144805
  47 H :    0.138216

  Mayer bond orders larger than 0.1
B(  0-C ,  1-C ) :   1.5314 B(  0-C ,  5-C ) :   1.3511 B(  0-C , 19-H ) :   0.9889
B(  1-C ,  2-C ) :   1.2670 B(  1-C , 16-H ) :   0.9486 B(  2-C ,  3-C ) :   1.3398
B(  2-C ,  6-C ) :   1.0693 B(  3-C ,  4-C ) :   1.2962 B(  3-C ,  8-N ) :   1.1182
B(  4-C ,  5-C ) :   1.4865 B(  4-C , 17-H ) :   0.9779 B(  5-C , 18-H ) :   0.9807
B(  6-C ,  7-C ) :   1.3136 B(  6-C , 12-C ) :   1.2321 B(  7-C ,  8-N ) :   1.1485
B(  7-C ,  9-C ) :   1.2841 B(  8-N , 14-H ) :   0.9132 B(  9-C , 10-C ) :   1.4507
B(  9-C , 46-H ) :   0.9769 B( 10-C , 11-C ) :   1.3875 B( 10-C , 15-H ) :   0.9867
B( 11-C , 12-C ) :   1.4499 B( 11-C , 13-H ) :   0.9566 B( 12-C , 28-C ) :   0.9709
B( 20-C , 21-N ) :   1.4470 B( 20-C , 25-N ) :   1.4039 B( 20-C , 37-C ) :   0.9945
B( 21-N , 22-C ) :   1.4929 B( 22-C , 23-N ) :   1.4866 B( 22-C , 26-C ) :   1.0394
B( 23-N , 24-C ) :   1.4614 B( 24-C , 25-N ) :   1.4880 B( 24-C , 33-H ) :   0.9636
B( 26-C , 27-N ) :   1.4871 B( 26-C , 31-N ) :   1.4767 B( 27-N , 28-C ) :   1.4599
B( 28-C , 29-N ) :   1.3882 B( 29-N , 30-C ) :   1.4542 B( 30-C , 31-N ) :   1.4713
B( 30-C , 32-H ) :   0.9622 B( 34-C , 35-C ) :   1.3706 B( 34-C , 39-C ) :   1.3653
B( 34-C , 47-H ) :   0.9091 B( 35-C , 36-C ) :   1.4002 B( 35-C , 40-O ) :   1.1394
B( 36-C , 37-C ) :   1.3957 B( 36-C , 45-H ) :   0.9588 B( 37-C , 38-C ) :   1.4181
B( 38-C , 39-C ) :   1.4018 B( 38-C , 42-H ) :   0.9446 B( 39-C , 41-O ) :   1.1400
B( 40-O , 43-H ) :   0.8791 B( 41-O , 44-H ) :   0.8794

Dispersion correction           -0.021056944
FINAL SINGLE POINT ENERGY     -1457.417176503104

DIPOLE MOMENT
-------------
                                X             Y             Z
Electronic contribution:      8.64179       4.30864       4.36752
Nuclear contribution   :     -9.19862      -4.69307      -6.37830
                        -----------------------------------------
Total Dipole Moment    :     -0.55683      -0.38443      -2.01078
                        -----------------------------------------
Magnitude (a.u.)       :      2.12158
Magnitude (Debye)      :      5.39262

                             ****ORCA TERMINATED NORMALLY****
TOTAL RUN TIME: 0 days 0 hours 11 minutes 27 seconds 673 msec
