                         Program Version 4.0.0 -  RELEASE  -
|  1> #
|  2> !wB97X-D3 def2-TZVP def2/J RIJCOSX Grid5 FinalGrid6 TightSCF
|  3> %pal
|  4>  nprocs 24
|  5> end
|  6> %tddft
|  7>   Mode sTDDFT
|  8>   nroots 2
|  9>   Ethresh 10.0
| 10>   maxcore 5000
| 11>   triplets true
| 12> end
| 13> * xyz 0 1
| 14> C -5.26868386 -2.30369629 -1.45803969
| 15> C -4.40802910 -1.35867345 -0.90565386
| 16> C -4.94977795 -0.26752735 -0.19942154
| 17> C -6.36402439 -0.18827694 -0.05939259
| 18> C -7.23369793 -1.13618633 -0.62003218
| 19> C -6.66391903 -2.19327267 -1.32463364
| 20> C -4.39919857 0.87132256 0.51972104
| 21> C -5.51558229 1.56194277 1.07787309
| 22> N -6.68173568 0.92224204 0.70280820
| 23> C -5.38500240 2.69668712 1.89233742
| 24> C -4.09459370 3.14412621 2.16599665
| 25> C -2.97795089 2.49196727 1.62686564
| 26> C -3.09532634 1.36852141 0.78705514
| 27> H -1.98628714 2.88098103 1.84165875
| 28> H -7.61637703 1.20174409 0.97442202
| 29> H -3.94800929 4.01471204 2.79871179
| 30> H -3.33564233 -1.47683873 -1.02107207
| 31> H -8.31046793 -1.05009727 -0.50181356
| 32> H -7.30543293 -2.94759296 -1.77218938
| 33> H -4.85455136 -3.14628609 -2.00466342
| 34> C 3.79611497 -0.35711285 -0.06536364
| 35> N 3.46612331 -0.93717509 -1.22796305
| 36> O 2.12581874 -0.78390706 -1.38205992
| 37> C 1.61309650 -0.11774117 -0.33602698
| 38> C 2.62647687 0.18528735 0.55080649
| 39> C 0.18219485 0.15249662 -0.30995077
| 40> N -0.63589425 -0.23733005 -1.29866299
| 41> O -1.88423922 0.17106243 -0.95052950
| 42> C -1.86124267 0.80169522 0.23288098
| 43> C -0.55838316 0.83503588 0.69736295
| 44> H -0.19231091 1.25759742 1.62163364
| 45> H 2.53884596 0.72222532 1.48428007
| 46> C 7.70601158 -0.21092488 1.61676800
| 47> N 6.64859616 0.15619072 2.33669035
| 48> C 5.41471248 0.09655703 1.76080423
| 49> C 5.17290445 -0.32513769 0.45372200
| 50> C 6.30501768 -0.71647106 -0.33670512
| 51> C 7.59769257 -0.65858649 0.26750908
| 52> N 6.16173736 -1.12466027 -1.64011821
| 53> C 7.26760588 -1.47010940 -2.28590932
| 54> C 8.55461368 -1.42427843 -1.67746678
| 55> N 8.72960641 -1.02249035 -0.42497764
| 56> H 4.57547241 0.40053356 2.39462057
| 57> H 7.16473449 -1.79637850 -3.32826015
| 58> H 9.44466057 -1.72045090 -2.24574700
| 59> H -6.25701429 3.19946589 2.30077929
| 60> H 8.69143771 -0.16109172 2.09414559
| 61> *
| 62> $new_job
| 63> #
| 64> !wB97X-D3 def2-TZVP def2/J RIJCOSX Grid5 FinalGrid6 TightSCF
| 65> %pal
| 66>  nprocs 24
| 67> end
| 68> %elprop
| 69>    dipole     true
| 70>    quadrupole true
| 71> end
| 72> %tddft
| 73>   Mode sTDDFT
| 74>   nroots 2
| 75>   Ethresh 10.0
| 76>   maxcore 5000
| 77> end
| 78> * xyz 0 1
| 79> C -5.26868386 -2.30369629 -1.45803969
| 80> C -4.40802910 -1.35867345 -0.90565386
| 81> C -4.94977795 -0.26752735 -0.19942154
| 82> C -6.36402439 -0.18827694 -0.05939259
| 83> C -7.23369793 -1.13618633 -0.62003218
| 84> C -6.66391903 -2.19327267 -1.32463364
| 85> C -4.39919857 0.87132256 0.51972104
| 86> C -5.51558229 1.56194277 1.07787309
| 87> N -6.68173568 0.92224204 0.70280820
| 88> C -5.38500240 2.69668712 1.89233742
| 89> C -4.09459370 3.14412621 2.16599665
| 90> C -2.97795089 2.49196727 1.62686564
| 91> C -3.09532634 1.36852141 0.78705514
| 92> H -1.98628714 2.88098103 1.84165875
| 93> H -7.61637703 1.20174409 0.97442202
| 94> H -3.94800929 4.01471204 2.79871179
| 95> H -3.33564233 -1.47683873 -1.02107207
| 96> H -8.31046793 -1.05009727 -0.50181356
| 97> H -7.30543293 -2.94759296 -1.77218938
| 98> H -4.85455136 -3.14628609 -2.00466342
| 99> C 3.79611497 -0.35711285 -0.06536364
|100> N 3.46612331 -0.93717509 -1.22796305
|101> O 2.12581874 -0.78390706 -1.38205992
|102> C 1.61309650 -0.11774117 -0.33602698
|103> C 2.62647687 0.18528735 0.55080649
|104> C 0.18219485 0.15249662 -0.30995077
|105> N -0.63589425 -0.23733005 -1.29866299
|106> O -1.88423922 0.17106243 -0.95052950
|107> C -1.86124267 0.80169522 0.23288098
|108> C -0.55838316 0.83503588 0.69736295
|109> H -0.19231091 1.25759742 1.62163364
|110> H 2.53884596 0.72222532 1.48428007
|111> C 7.70601158 -0.21092488 1.61676800
|112> N 6.64859616 0.15619072 2.33669035
|113> C 5.41471248 0.09655703 1.76080423
|114> C 5.17290445 -0.32513769 0.45372200
|115> C 6.30501768 -0.71647106 -0.33670512
|116> C 7.59769257 -0.65858649 0.26750908
|117> N 6.16173736 -1.12466027 -1.64011821
|118> C 7.26760588 -1.47010940 -2.28590932
|119> C 8.55461368 -1.42427843 -1.67746678
|120> N 8.72960641 -1.02249035 -0.42497764
|121> H 4.57547241 0.40053356 2.39462057
|122> H 7.16473449 -1.79637850 -3.32826015
|123> H 9.44466057 -1.72045090 -2.24574700
|124> H -6.25701429 3.19946589 2.30077929
|125> H 8.69143771 -0.16109172 2.09414559
|126> *
|127>
|128>                          ****END OF INPUT****
 Total Charge           Charge          ....    0
 Multiplicity           Mult            ....    1
 Number of Electrons    NEL             ....  222
Dispersion correction           -0.020324383
FINAL SINGLE POINT ENERGY     -1440.047553038250

CARTESIAN COORDINATES (ANGSTROEM)
---------------------------------
  C     -5.268684   -2.303696   -1.458040
  C     -4.408029   -1.358673   -0.905654
  C     -4.949778   -0.267527   -0.199422
  C     -6.364024   -0.188277   -0.059393
  C     -7.233698   -1.136186   -0.620032
  C     -6.663919   -2.193273   -1.324634
  C     -4.399199    0.871323    0.519721
  C     -5.515582    1.561943    1.077873
  N     -6.681736    0.922242    0.702808
  C     -5.385002    2.696687    1.892337
  C     -4.094594    3.144126    2.165997
  C     -2.977951    2.491967    1.626866
  C     -3.095326    1.368521    0.787055
  H     -1.986287    2.880981    1.841659
  H     -7.616377    1.201744    0.974422
  H     -3.948009    4.014712    2.798712
  H     -3.335642   -1.476839   -1.021072
  H     -8.310468   -1.050097   -0.501814
  H     -7.305433   -2.947593   -1.772189
  H     -4.854551   -3.146286   -2.004663
  C      3.796115   -0.357113   -0.065364
  N      3.466123   -0.937175   -1.227963
  O      2.125819   -0.783907   -1.382060
  C      1.613096   -0.117741   -0.336027
  C      2.626477    0.185287    0.550806
  C      0.182195    0.152497   -0.309951
  N     -0.635894   -0.237330   -1.298663
  O     -1.884239    0.171062   -0.950530
  C     -1.861243    0.801695    0.232881
  C     -0.558383    0.835036    0.697363
  H     -0.192311    1.257597    1.621634
  H      2.538846    0.722225    1.484280
  C      7.706012   -0.210925    1.616768
  N      6.648596    0.156191    2.336690
  C      5.414712    0.096557    1.760804
  C      5.172904   -0.325138    0.453722
  C      6.305018   -0.716471   -0.336705
  C      7.597693   -0.658586    0.267509
  N      6.161737   -1.124660   -1.640118
  C      7.267606   -1.470109   -2.285909
  C      8.554614   -1.424278   -1.677467
  N      8.729606   -1.022490   -0.424978
  H      4.575472    0.400534    2.394621
  H      7.164734   -1.796379   -3.328260
  H      9.444661   -1.720451   -2.245747
  H     -6.257014    3.199466    2.300779
  H      8.691438   -0.161092    2.094146

 Multiplicity           Mult            ....    1
 Number of Electrons    NEL             ....  222
 Basis Dimension        Dim             .... 1107

ORBITAL ENERGIES
----------------

  NO   OCC          E(Eh)            E(eV)
   0   2.0000     -19.340998      -526.2953
   1   2.0000     -19.334129      -526.1084
   2   2.0000     -14.484632      -394.1469
   3   2.0000     -14.478022      -393.9670
   4   2.0000     -14.473946      -393.8561
   5   2.0000     -14.462389      -393.5416
   6   2.0000     -14.453843      -393.3091
   7   2.0000     -14.444460      -393.0537
   8   2.0000     -10.371587      -282.2252
   9   2.0000     -10.371571      -282.2248
  10   2.0000     -10.354363      -281.7565
  11   2.0000     -10.348662      -281.6014
  12   2.0000     -10.347203      -281.5617
  13   2.0000     -10.347202      -281.5617
  14   2.0000     -10.345706      -281.5210
  15   2.0000     -10.341371      -281.4030
  16   2.0000     -10.340062      -281.3674
  17   2.0000     -10.339716      -281.3580
  18   2.0000     -10.337593      -281.3002
  19   2.0000     -10.330107      -281.0965
  20   2.0000     -10.327845      -281.0349
  21   2.0000     -10.321894      -280.8730
  22   2.0000     -10.307430      -280.4794
  23   2.0000     -10.305673      -280.4316
  24   2.0000     -10.304223      -280.3922
  25   2.0000     -10.300828      -280.2998
  26   2.0000     -10.298373      -280.2330
  27   2.0000     -10.296221      -280.1744
  28   2.0000     -10.294161      -280.1184
  29   2.0000     -10.288761      -279.9714
  30   2.0000     -10.287412      -279.9347
  31   2.0000     -10.284704      -279.8610
  32   2.0000     -10.275958      -279.6230
  33   2.0000      -1.290243       -35.1093
  34   2.0000      -1.282526       -34.8993
  35   2.0000      -1.115550       -30.3557
  36   2.0000      -1.111418       -30.2432
  37   2.0000      -1.070074       -29.1182
  38   2.0000      -1.041319       -28.3357
  39   2.0000      -1.015052       -27.6210
  40   2.0000      -0.993559       -27.0361
  41   2.0000      -0.984416       -26.7873
  42   2.0000      -0.968328       -26.3496
  43   2.0000      -0.941550       -25.6209
  44   2.0000      -0.929668       -25.2975
  45   2.0000      -0.920808       -25.0565
  46   2.0000      -0.906048       -24.6548
  47   2.0000      -0.897430       -24.4203
  48   2.0000      -0.875855       -23.8332
  49   2.0000      -0.850362       -23.1395
  50   2.0000      -0.844854       -22.9897
  51   2.0000      -0.813187       -22.1279
  52   2.0000      -0.792967       -21.5777
  53   2.0000      -0.780802       -21.2467
  54   2.0000      -0.771283       -20.9877
  55   2.0000      -0.769783       -20.9469
  56   2.0000      -0.738734       -20.1020
  57   2.0000      -0.730327       -19.8732
  58   2.0000      -0.718855       -19.5610
  59   2.0000      -0.716737       -19.5034
  60   2.0000      -0.705492       -19.1974
  61   2.0000      -0.674874       -18.3643
  62   2.0000      -0.670826       -18.2541
  63   2.0000      -0.667304       -18.1583
  64   2.0000      -0.648913       -17.6578
  65   2.0000      -0.632441       -17.2096
  66   2.0000      -0.632009       -17.1978
  67   2.0000      -0.619684       -16.8625
  68   2.0000      -0.611172       -16.6308
  69   2.0000      -0.608774       -16.5656
  70   2.0000      -0.602388       -16.3918
  71   2.0000      -0.591796       -16.1036
  72   2.0000      -0.583748       -15.8846
  73   2.0000      -0.576033       -15.6746
  74   2.0000      -0.568072       -15.4580
  75   2.0000      -0.565022       -15.3750
  76   2.0000      -0.562034       -15.2937
  77   2.0000      -0.561100       -15.2683
  78   2.0000      -0.551713       -15.0129
  79   2.0000      -0.545037       -14.8312
  80   2.0000      -0.534508       -14.5447
  81   2.0000      -0.534174       -14.5356
  82   2.0000      -0.529859       -14.4182
  83   2.0000      -0.529141       -14.3987
  84   2.0000      -0.527097       -14.3430
  85   2.0000      -0.508302       -13.8316
  86   2.0000      -0.499616       -13.5952
  87   2.0000      -0.496829       -13.5194
  88   2.0000      -0.490123       -13.3369
  89   2.0000      -0.476998       -12.9798
  90   2.0000      -0.472667       -12.8619
  91   2.0000      -0.471579       -12.8323
  92   2.0000      -0.462252       -12.5785
  93   2.0000      -0.449403       -12.2289
  94   2.0000      -0.446978       -12.1629
  95   2.0000      -0.440414       -11.9843
  96   2.0000      -0.432266       -11.7625
  97   2.0000      -0.430288       -11.7087
  98   2.0000      -0.416262       -11.3271
  99   2.0000      -0.414603       -11.2819
 100   2.0000      -0.402505       -10.9527
 101   2.0000      -0.395591       -10.7646
 102   2.0000      -0.375830       -10.2269
 103   2.0000      -0.375215       -10.2101
 104   2.0000      -0.374845       -10.2001
 105   2.0000      -0.351635        -9.5685
 106   2.0000      -0.346982        -9.4419
 107   2.0000      -0.338545        -9.2123
 108   2.0000      -0.330850        -9.0029
 109   2.0000      -0.304640        -8.2897
 110   2.0000      -0.293556        -7.9881
 111   0.0000      -0.034025        -0.9259
 112   0.0000      -0.002939        -0.0800
 113   0.0000       0.014477         0.3939
 114   0.0000       0.024392         0.6637
 115   0.0000       0.043157         1.1744

MULLIKEN ATOMIC CHARGES
-----------------------
   0 C :   -0.175620
   1 C :   -0.131078
   2 C :   -0.043150
   3 C :    0.167695
   4 C :   -0.237642
   5 C :   -0.077275
   6 C :   -0.021093
   7 C :    0.176804
   8 N :   -0.302533
   9 C :   -0.223390
  10 C :   -0.089166
  11 C :   -0.277953
  12 C :    0.070798
  13 H :    0.121084
  14 H :    0.237609
  15 H :    0.125793
  16 H :    0.153027
  17 H :    0.114793
  18 H :    0.124311
  19 H :    0.122761
  20 C :    0.239936
  21 N :   -0.105144
  22 O :   -0.097159
  23 C :    0.201169
  24 C :   -0.299397
  25 C :    0.130222
  26 N :   -0.158240
  27 O :   -0.128526
  28 C :    0.295117
  29 C :   -0.273880
  30 H :    0.162287
  31 H :    0.158809
  32 C :   -0.038971
  33 N :   -0.262054
  34 C :   -0.028859
  35 C :   -0.002862
  36 C :    0.061230
  37 C :    0.124928
  38 N :   -0.237447
  39 C :   -0.025526
  40 C :    0.001015
  41 N :   -0.242891
  42 H :    0.123397
  43 H :    0.146014
  44 H :    0.145332
  45 H :    0.121347
  46 H :    0.154379
Sum of atomic charges:   -0.0000000

LOEWDIN ATOMIC CHARGES
----------------------
   0 C :   -0.155287
   1 C :   -0.095758
   2 C :   -0.080680
   3 C :   -0.144346
   4 C :   -0.133824
   5 C :   -0.138099
   6 C :   -0.033924
   7 C :   -0.143000
   8 N :    0.202090
   9 C :   -0.120335
  10 C :   -0.140896
  11 C :   -0.108795
  12 C :   -0.082294
  13 H :    0.149577
  14 H :    0.193987
  15 H :    0.147549
  16 H :    0.152549
  17 H :    0.143190
  18 H :    0.145274
  19 H :    0.145305
  20 C :   -0.209533
  21 N :    0.063866
  22 O :    0.317396
  23 C :   -0.220150
  24 C :   -0.121773
  25 C :   -0.228262
  26 N :    0.048032
  27 O :    0.311571
  28 C :   -0.197939
  29 C :   -0.121622
  30 H :    0.148228
  31 H :    0.146025
  32 C :   -0.142782
  33 N :    0.121639
  34 C :   -0.148481
  35 C :   -0.086174
  36 C :   -0.121875
  37 C :   -0.180959
  38 N :    0.195111
  39 C :   -0.183312
  40 C :   -0.195361
  41 N :    0.173548
  42 H :    0.144942
  43 H :    0.146625
  44 H :    0.144153
  45 H :    0.145677
  46 H :    0.149125

  Mayer bond orders larger than 0.1
B(  0-C ,  1-C ) :   1.5367 B(  0-C ,  5-C ) :   1.3541 B(  0-C , 19-H ) :   0.9853
B(  1-C ,  2-C ) :   1.2688 B(  1-C , 16-H ) :   0.9362 B(  2-C ,  3-C ) :   1.3687
B(  2-C ,  6-C ) :   1.0725 B(  3-C ,  4-C ) :   1.3048 B(  3-C ,  8-N ) :   1.1165
B(  4-C ,  5-C ) :   1.4830 B(  4-C , 17-H ) :   0.9761 B(  5-C , 18-H ) :   0.9802
B(  6-C ,  7-C ) :   1.3304 B(  6-C , 12-C ) :   1.2518 B(  7-C ,  8-N ) :   1.1561
B(  7-C ,  9-C ) :   1.2895 B(  8-N , 14-H ) :   0.9125 B(  9-C , 10-C ) :   1.4606
B(  9-C , 45-H ) :   0.9729 B( 10-C , 11-C ) :   1.4077 B( 10-C , 15-H ) :   0.9834
B( 11-C , 12-C ) :   1.4337 B( 11-C , 13-H ) :   0.9719 B( 12-C , 28-C ) :   0.9639
B( 20-C , 21-N ) :   1.6643 B( 20-C , 24-C ) :   1.2353 B( 20-C , 35-C ) :   0.9400
B( 21-N , 22-O ) :   0.9800 B( 21-N , 23-C ) :   0.1207 B( 22-O , 23-C ) :   1.2274
B( 23-C , 24-C ) :   1.6442 B( 23-C , 25-C ) :   0.9879 B( 24-C , 31-H ) :   0.9064
B( 25-C , 26-N ) :   1.6529 B( 25-C , 29-C ) :   1.2816 B( 26-N , 27-O ) :   0.9838
B( 26-N , 28-C ) :   0.1243 B( 27-O , 28-C ) :   1.1708 B( 28-C , 29-C ) :   1.6058
B( 29-C , 30-H ) :   0.9231 B( 32-C , 33-N ) :   1.6244 B( 32-C , 37-C ) :   1.2089
B( 32-C , 46-H ) :   0.9748 B( 33-N , 34-C ) :   1.3735 B( 34-C , 35-C ) :   1.4893
B( 34-C , 42-H ) :   0.9909 B( 35-C , 36-C ) :   1.2255 B( 36-C , 37-C ) :   1.3291
B( 36-C , 38-N ) :   1.3088 B( 37-C , 41-N ) :   1.3069 B( 38-N , 39-C ) :   1.6592
B( 39-C , 40-C ) :   1.2246 B( 39-C , 43-H ) :   0.9652 B( 40-C , 41-N ) :   1.6206
B( 40-C , 44-H ) :   0.9623

Dispersion correction           -0.020324383
FINAL SINGLE POINT ENERGY     -1440.047553090683

DIPOLE MOMENT
-------------
                                X             Y             Z
Electronic contribution:     14.34440      -1.12070      -3.50787
Nuclear contribution   :    -15.54063       1.94912       4.47512
                        -----------------------------------------
Total Dipole Moment    :     -1.19623       0.82842       0.96726
                        -----------------------------------------
Magnitude (a.u.)       :      1.74723
Magnitude (Debye)      :      4.44112

                             ****ORCA TERMINATED NORMALLY****
TOTAL RUN TIME: 0 days 0 hours 10 minutes 12 seconds 869 msec
