                         Program Version 4.0.0 -  RELEASE  -
|  1> #
|  2> !wB97X-D3 def2-TZVP def2/J RIJCOSX Grid5 FinalGrid6 TightSCF
|  3> %pal
|  4>  nprocs 24
|  5> end
|  6> %tddft
|  7>   Mode sTDDFT
|  8>   nroots 2
|  9>   Ethresh 10.0
| 10>   maxcore 5000
| 11>   triplets true
| 12> end
| 13> * xyz 0 1
| 14> C 4.21234829 2.99652507 -0.32135120
| 15> C 3.61399015 1.75058795 -0.15290646
| 16> C 4.42974014 0.61840825 0.03483971
| 17> C 5.84206714 0.79454637 0.03393125
| 18> C 6.44746496 2.05007440 -0.12861029
| 19> C 5.61010432 3.14852965 -0.30516071
| 20> C 4.18994188 -0.80549076 0.21160231
| 21> C 5.47805280 -1.41427372 0.28868691
| 22> N 6.45137799 -0.43712112 0.19778642
| 23> C 5.66632288 -2.79855189 0.41312819
| 24> C 4.52651962 -3.59929576 0.44503747
| 25> C 3.24842221 -3.03234814 0.36931604
| 26> C 3.04146364 -1.64267018 0.27076540
| 27> H 2.38187562 -3.68820370 0.41352268
| 28> H 7.45024962 -0.60264675 0.21281098
| 29> H 4.62613303 -4.67729505 0.53309981
| 30> H 2.53176091 1.66042403 -0.16351463
| 31> H 7.52878885 2.15798051 -0.12177850
| 32> H 6.04237894 4.13722951 -0.43454064
| 33> H 3.58706125 3.87338631 -0.46539682
| 34> S -3.20518140 0.59573786 0.30491931
| 35> C -2.16489069 -0.77432322 -0.09787188
| 36> N -2.82712063 -1.81519944 -0.59748251
| 37> N -4.16897721 -1.60334039 -0.69207719
| 38> C -4.55007121 -0.40003315 -0.26737126
| 39> C -0.73345400 -0.76141741 0.09654022
| 40> N -0.06635223 0.26962819 0.59940526
| 41> N 1.27968040 0.05124587 0.68875869
| 42> C 1.66421552 -1.13977534 0.25360625
| 43> S 0.30156077 -2.13555511 -0.31529354
| 44> C -8.69724822 0.89854454 -0.30618401
| 45> C -8.31875405 -0.34292646 -0.74573270
| 46> C -6.95580635 -0.76886666 -0.73263784
| 47> C -5.93581146 0.04581231 -0.27557867
| 48> C -6.28576054 1.37438076 0.20213155
| 49> C -7.69354760 1.80701569 0.18569315
| 50> N -5.38454218 2.22426488 0.65719608
| 51> S -6.33572479 3.78238390 1.14556032
| 52> N -7.96924585 3.02375015 0.62907443
| 53> H -9.07002395 -1.03455578 -1.11848996
| 54> H -6.71249238 -1.76477948 -1.09327740
| 55> H 6.66230810 -3.22839268 0.47129576
| 56> H -9.73882429 1.20640598 -0.32315200
| 57> *
| 58> $new_job
| 59> #
| 60> !wB97X-D3 def2-TZVP def2/J RIJCOSX Grid5 FinalGrid6 TightSCF
| 61> %pal
| 62>  nprocs 24
| 63> end
| 64> %elprop
| 65>    dipole     true
| 66>    quadrupole true
| 67> end
| 68> %tddft
| 69>   Mode sTDDFT
| 70>   nroots 2
| 71>   Ethresh 10.0
| 72>   maxcore 5000
| 73> end
| 74> * xyz 0 1
| 75> C 4.21234829 2.99652507 -0.32135120
| 76> C 3.61399015 1.75058795 -0.15290646
| 77> C 4.42974014 0.61840825 0.03483971
| 78> C 5.84206714 0.79454637 0.03393125
| 79> C 6.44746496 2.05007440 -0.12861029
| 80> C 5.61010432 3.14852965 -0.30516071
| 81> C 4.18994188 -0.80549076 0.21160231
| 82> C 5.47805280 -1.41427372 0.28868691
| 83> N 6.45137799 -0.43712112 0.19778642
| 84> C 5.66632288 -2.79855189 0.41312819
| 85> C 4.52651962 -3.59929576 0.44503747
| 86> C 3.24842221 -3.03234814 0.36931604
| 87> C 3.04146364 -1.64267018 0.27076540
| 88> H 2.38187562 -3.68820370 0.41352268
| 89> H 7.45024962 -0.60264675 0.21281098
| 90> H 4.62613303 -4.67729505 0.53309981
| 91> H 2.53176091 1.66042403 -0.16351463
| 92> H 7.52878885 2.15798051 -0.12177850
| 93> H 6.04237894 4.13722951 -0.43454064
| 94> H 3.58706125 3.87338631 -0.46539682
| 95> S -3.20518140 0.59573786 0.30491931
| 96> C -2.16489069 -0.77432322 -0.09787188
| 97> N -2.82712063 -1.81519944 -0.59748251
| 98> N -4.16897721 -1.60334039 -0.69207719
| 99> C -4.55007121 -0.40003315 -0.26737126
|100> C -0.73345400 -0.76141741 0.09654022
|101> N -0.06635223 0.26962819 0.59940526
|102> N 1.27968040 0.05124587 0.68875869
|103> C 1.66421552 -1.13977534 0.25360625
|104> S 0.30156077 -2.13555511 -0.31529354
|105> C -8.69724822 0.89854454 -0.30618401
|106> C -8.31875405 -0.34292646 -0.74573270
|107> C -6.95580635 -0.76886666 -0.73263784
|108> C -5.93581146 0.04581231 -0.27557867
|109> C -6.28576054 1.37438076 0.20213155
|110> C -7.69354760 1.80701569 0.18569315
|111> N -5.38454218 2.22426488 0.65719608
|112> S -6.33572479 3.78238390 1.14556032
|113> N -7.96924585 3.02375015 0.62907443
|114> H -9.07002395 -1.03455578 -1.11848996
|115> H -6.71249238 -1.76477948 -1.09327740
|116> H 6.66230810 -3.22839268 0.47129576
|117> H -9.73882429 1.20640598 -0.32315200
|118> *
|119>
|120>                          ****END OF INPUT****
 Total Charge           Charge          ....    0
 Multiplicity           Mult            ....    1
 Number of Electrons    NEL             ....  240
Dispersion correction           -0.019715318
FINAL SINGLE POINT ENERGY     -2422.817421645076

CARTESIAN COORDINATES (ANGSTROEM)
---------------------------------
  C      4.212348    2.996525   -0.321351
  C      3.613990    1.750588   -0.152906
  C      4.429740    0.618408    0.034840
  C      5.842067    0.794546    0.033931
  C      6.447465    2.050074   -0.128610
  C      5.610104    3.148530   -0.305161
  C      4.189942   -0.805491    0.211602
  C      5.478053   -1.414274    0.288687
  N      6.451378   -0.437121    0.197786
  C      5.666323   -2.798552    0.413128
  C      4.526520   -3.599296    0.445037
  C      3.248422   -3.032348    0.369316
  C      3.041464   -1.642670    0.270765
  H      2.381876   -3.688204    0.413523
  H      7.450250   -0.602647    0.212811
  H      4.626133   -4.677295    0.533100
  H      2.531761    1.660424   -0.163515
  H      7.528789    2.157981   -0.121778
  H      6.042379    4.137230   -0.434541
  H      3.587061    3.873386   -0.465397
  S     -3.205181    0.595738    0.304919
  C     -2.164891   -0.774323   -0.097872
  N     -2.827121   -1.815199   -0.597483
  N     -4.168977   -1.603340   -0.692077
  C     -4.550071   -0.400033   -0.267371
  C     -0.733454   -0.761417    0.096540
  N     -0.066352    0.269628    0.599405
  N      1.279680    0.051246    0.688759
  C      1.664216   -1.139775    0.253606
  S      0.301561   -2.135555   -0.315294
  C     -8.697248    0.898545   -0.306184
  C     -8.318754   -0.342926   -0.745733
  C     -6.955806   -0.768867   -0.732638
  C     -5.935811    0.045812   -0.275579
  C     -6.285761    1.374381    0.202132
  C     -7.693548    1.807016    0.185693
  N     -5.384542    2.224265    0.657196
  S     -6.335725    3.782384    1.145560
  N     -7.969246    3.023750    0.629074
  H     -9.070024   -1.034556   -1.118490
  H     -6.712492   -1.764779   -1.093277
  H      6.662308   -3.228393    0.471296
  H     -9.738824    1.206406   -0.323152

 Multiplicity           Mult            ....    1
 Number of Electrons    NEL             ....  240
 Basis Dimension        Dim             .... 1076

ORBITAL ENERGIES
----------------

  NO   OCC          E(Eh)            E(eV)
   0   2.0000     -89.044792     -2423.0320
   1   2.0000     -89.008876     -2422.0546
   2   2.0000     -89.006186     -2421.9814
   3   2.0000     -14.497469      -394.4962
   4   2.0000     -14.495709      -394.4483
   5   2.0000     -14.472299      -393.8113
   6   2.0000     -14.471421      -393.7874
   7   2.0000     -14.470690      -393.7675
   8   2.0000     -14.468955      -393.7203
   9   2.0000     -14.463010      -393.5585
  10   2.0000     -10.377207      -282.3781
  11   2.0000     -10.376975      -282.3718
  12   2.0000     -10.374362      -282.3007
  13   2.0000     -10.373546      -282.2785
  14   2.0000     -10.367597      -282.1166
  15   2.0000     -10.364806      -282.0407
  16   2.0000     -10.343026      -281.4480
  17   2.0000     -10.334606      -281.2189
  18   2.0000     -10.330050      -281.0950
  19   2.0000     -10.326736      -281.0048
  20   2.0000     -10.325892      -280.9818
  21   2.0000     -10.325780      -280.9788
  22   2.0000     -10.320443      -280.8335
  23   2.0000     -10.304899      -280.4106
  24   2.0000     -10.299251      -280.2569
  25   2.0000     -10.295961      -280.1673
  26   2.0000     -10.294707      -280.1332
  27   2.0000     -10.288753      -279.9712
  28   2.0000     -10.284248      -279.8486
  29   2.0000     -10.283270      -279.8220
  30   2.0000     -10.277182      -279.6563
  31   2.0000     -10.270548      -279.4758
  32   2.0000      -8.133272      -221.3176
  33   2.0000      -8.104267      -220.5283
  34   2.0000      -8.102432      -220.4784
  35   2.0000      -6.089248      -165.6969
  36   2.0000      -6.082914      -165.5245
  37   2.0000      -6.078233      -165.3971
  38   2.0000      -6.057446      -164.8315
  39   2.0000      -6.055492      -164.7783
  40   2.0000      -6.053278      -164.7181
  41   2.0000      -6.051585      -164.6720
  42   2.0000      -6.051410      -164.6672
  43   2.0000      -6.049543      -164.6164
  44   2.0000      -1.156885       -31.4804
  45   2.0000      -1.148617       -31.2555
  46   2.0000      -1.107829       -30.1456
  47   2.0000      -1.104841       -30.0642
  48   2.0000      -1.021342       -27.7921
  49   2.0000      -0.999834       -27.2069
  50   2.0000      -0.991835       -26.9892
  51   2.0000      -0.975193       -26.5364
  52   2.0000      -0.963625       -26.2216
  53   2.0000      -0.947938       -25.7947
  54   2.0000      -0.934520       -25.4296
  55   2.0000      -0.915140       -24.9022
  56   2.0000      -0.901615       -24.5342
  57   2.0000      -0.884161       -24.0592
  58   2.0000      -0.876676       -23.8556
  59   2.0000      -0.874354       -23.7924
  60   2.0000      -0.846703       -23.0400
  61   2.0000      -0.841080       -22.8869
  62   2.0000      -0.790985       -21.5238
  63   2.0000      -0.783762       -21.3273
  64   2.0000      -0.770401       -20.9637
  65   2.0000      -0.759014       -20.6538
  66   2.0000      -0.730856       -19.8876
  67   2.0000      -0.725069       -19.7301
  68   2.0000      -0.721232       -19.6257
  69   2.0000      -0.713627       -19.4188
  70   2.0000      -0.699078       -19.0229
  71   2.0000      -0.670418       -18.2430
  72   2.0000      -0.659032       -17.9332
  73   2.0000      -0.641712       -17.4619
  74   2.0000      -0.625397       -17.0179
  75   2.0000      -0.624452       -16.9922
  76   2.0000      -0.616528       -16.7766
  77   2.0000      -0.608762       -16.5653
  78   2.0000      -0.606748       -16.5104
  79   2.0000      -0.586389       -15.9565
  80   2.0000      -0.577071       -15.7029
  81   2.0000      -0.572642       -15.5824
  82   2.0000      -0.565819       -15.3967
  83   2.0000      -0.560611       -15.2550
  84   2.0000      -0.555502       -15.1160
  85   2.0000      -0.549501       -14.9527
  86   2.0000      -0.541933       -14.7467
  87   2.0000      -0.539111       -14.6699
  88   2.0000      -0.535915       -14.5830
  89   2.0000      -0.529566       -14.4102
  90   2.0000      -0.525577       -14.3017
  91   2.0000      -0.519742       -14.1429
  92   2.0000      -0.518710       -14.1148
  93   2.0000      -0.508668       -13.8416
  94   2.0000      -0.500008       -13.6059
  95   2.0000      -0.494373       -13.4526
  96   2.0000      -0.478211       -13.0128
  97   2.0000      -0.474352       -12.9078
  98   2.0000      -0.468652       -12.7527
  99   2.0000      -0.467963       -12.7339
 100   2.0000      -0.456214       -12.4142
 101   2.0000      -0.445900       -12.1336
 102   2.0000      -0.443781       -12.0759
 103   2.0000      -0.435089       -11.8394
 104   2.0000      -0.428418       -11.6578
 105   2.0000      -0.420832       -11.4514
 106   2.0000      -0.418308       -11.3827
 107   2.0000      -0.411399       -11.1947
 108   2.0000      -0.396493       -10.7891
 109   2.0000      -0.395039       -10.7496
 110   2.0000      -0.390720       -10.6320
 111   2.0000      -0.383241       -10.4285
 112   2.0000      -0.373901       -10.1744
 113   2.0000      -0.370501       -10.0818
 114   2.0000      -0.366739        -9.9795
 115   2.0000      -0.364052        -9.9064
 116   2.0000      -0.341496        -9.2926
 117   2.0000      -0.317436        -8.6379
 118   2.0000      -0.300013        -8.1638
 119   2.0000      -0.289989        -7.8910
 120   0.0000      -0.068308        -1.8587
 121   0.0000      -0.025720        -0.6999
 122   0.0000       0.006969         0.1896
 123   0.0000       0.008488         0.2310
 124   0.0000       0.032335         0.8799

MULLIKEN ATOMIC CHARGES
-----------------------
   0 C :   -0.174259
   1 C :   -0.131030
   2 C :   -0.018737
   3 C :    0.168219
   4 C :   -0.236253
   5 C :   -0.079109
   6 C :   -0.030682
   7 C :    0.187719
   8 N :   -0.302538
   9 C :   -0.224937
  10 C :   -0.096277
  11 C :   -0.274708
  12 C :    0.122113
  13 H :    0.130530
  14 H :    0.236624
  15 H :    0.126848
  16 H :    0.157227
  17 H :    0.112733
  18 H :    0.122211
  19 H :    0.119007
  20 S :    0.124660
  21 C :    0.099060
  22 N :   -0.188622
  23 N :   -0.140579
  24 C :    0.213279
  25 C :    0.118476
  26 N :   -0.168524
  27 N :   -0.190705
  28 C :    0.148727
  29 S :    0.063767
  30 C :   -0.170372
  31 C :   -0.087795
  32 C :   -0.145585
  33 C :   -0.105759
  34 C :    0.153015
  35 C :    0.075559
  36 N :   -0.293230
  37 S :    0.199999
  38 N :   -0.213607
  39 H :    0.145097
  40 H :    0.173679
  41 H :    0.121779
  42 H :    0.152980
Sum of atomic charges:   -0.0000000

LOEWDIN ATOMIC CHARGES
----------------------
   0 C :   -0.157790
   1 C :   -0.091413
   2 C :   -0.077907
   3 C :   -0.144496
   4 C :   -0.136469
   5 C :   -0.139109
   6 C :   -0.028080
   7 C :   -0.143182
   8 N :    0.201530
   9 C :   -0.118002
  10 C :   -0.141481
  11 C :   -0.123095
  12 C :   -0.116135
  13 H :    0.145441
  14 H :    0.193540
  15 H :    0.147841
  16 H :    0.154138
  17 H :    0.142477
  18 H :    0.144504
  19 H :    0.144086
  20 S :    0.773129
  21 C :   -0.460363
  22 N :    0.040589
  23 N :    0.041766
  24 C :   -0.392621
  25 C :   -0.460032
  26 N :    0.044969
  27 N :    0.047461
  28 C :   -0.374526
  29 S :    0.737872
  30 C :   -0.088711
  31 C :   -0.120273
  32 C :   -0.051544
  33 C :   -0.123314
  34 C :   -0.226660
  35 C :   -0.258792
  36 N :   -0.072898
  37 S :    0.518914
  38 N :   -0.053204
  39 H :    0.154516
  40 H :    0.164368
  41 H :    0.145738
  42 H :    0.157219

  Mayer bond orders larger than 0.1
B(  0-C ,  1-C ) :   1.5361 B(  0-C ,  5-C ) :   1.3510 B(  0-C , 19-H ) :   0.9860
B(  1-C ,  2-C ) :   1.2711 B(  1-C , 16-H ) :   0.9350 B(  2-C ,  3-C ) :   1.3565
B(  2-C ,  6-C ) :   1.0883 B(  3-C ,  4-C ) :   1.3032 B(  3-C ,  8-N ) :   1.1157
B(  4-C ,  5-C ) :   1.4830 B(  4-C , 17-H ) :   0.9769 B(  5-C , 18-H ) :   0.9814
B(  6-C ,  7-C ) :   1.3225 B(  6-C , 12-C ) :   1.2440 B(  7-C ,  8-N ) :   1.1530
B(  7-C ,  9-C ) :   1.2893 B(  8-N , 14-H ) :   0.9123 B(  9-C , 10-C ) :   1.4671
B(  9-C , 41-H ) :   0.9723 B( 10-C , 11-C ) :   1.4203 B( 10-C , 15-H ) :   0.9807
B( 11-C , 12-C ) :   1.4012 B( 11-C , 13-H ) :   0.9600 B( 12-C , 28-C ) :   0.9559
B( 20-S , 21-C ) :   1.3137 B( 20-S , 24-C ) :   1.3143 B( 21-C , 22-N ) :   1.6890
B( 21-C , 25-C ) :   0.9584 B( 22-N , 23-N ) :   1.1857 B( 23-N , 24-C ) :   1.6709
B( 24-C , 33-C ) :   0.9489 B( 25-C , 26-N ) :   1.6991 B( 25-C , 29-S ) :   1.3018
B( 26-N , 27-N ) :   1.1232 B( 27-N , 28-C ) :   1.6400 B( 28-C , 29-S ) :   1.2884
B( 30-C , 31-C ) :   1.6620 B( 30-C , 35-C ) :   1.1245 B( 30-C , 42-H ) :   0.9635
B( 31-C , 32-C ) :   1.1637 B( 31-C , 39-H ) :   0.9765 B( 32-C , 33-C ) :   1.6607
B( 32-C , 40-H ) :   0.9386 B( 33-C , 34-C ) :   1.0544 B( 34-C , 35-C ) :   1.0551
B( 34-C , 36-N ) :   1.6317 B( 35-C , 38-N ) :   1.7279 B( 36-N , 37-S ) :   1.0967
B( 36-N , 38-N ) :   0.1248 B( 37-S , 38-N ) :   1.1191

Dispersion correction           -0.019715318
FINAL SINGLE POINT ENERGY     -2422.817421601681

DIPOLE MOMENT
-------------
                                X             Y             Z
Electronic contribution:    -22.51454       2.78961       2.74460
Nuclear contribution   :     22.82758      -3.42488      -3.05053
                        -----------------------------------------
Total Dipole Moment    :      0.31304      -0.63527      -0.30593
                        -----------------------------------------
Magnitude (a.u.)       :      0.77146
Magnitude (Debye)      :      1.96090

                             ****ORCA TERMINATED NORMALLY****
TOTAL RUN TIME: 0 days 0 hours 12 minutes 21 seconds 377 msec
