                         Program Version 4.0.0 -  RELEASE  -
|  1> #
|  2> !wB97X-D3 def2-TZVP def2/J RIJCOSX Grid5 FinalGrid6 TightSCF
|  3> %pal
|  4>  nprocs 24
|  5> end
|  6> %tddft
|  7>   Mode sTDDFT
|  8>   nroots 2
|  9>   Ethresh 10.0
| 10>   maxcore 5000
| 11>   triplets true
| 12> end
| 13> * xyz 0 1
| 14> C -4.79736039 0.62461953 -2.68121362
| 15> C -4.05987663 0.29105469 -1.54819057
| 16> C -4.74024677 -0.06883701 -0.36922968
| 17> C -6.16343797 -0.06657600 -0.38185345
| 18> C -6.90900059 0.26235191 -1.52430158
| 19> C -6.20329680 0.60693788 -2.67420824
| 20> C -4.33845953 -0.44183314 0.97829468
| 21> C -5.54807640 -0.62628382 1.71208830
| 22> N -6.62723481 -0.41381972 0.87492631
| 23> C -5.57605422 -0.94936701 3.07666296
| 24> C -4.35177149 -1.07569451 3.72969186
| 25> C -3.14725316 -0.89869008 3.03781475
| 26> C -3.10141821 -0.59995855 1.66227737
| 27> H -2.21108186 -1.02097098 3.57784310
| 28> H -7.60048063 -0.46903931 1.14896595
| 29> H -4.32680335 -1.31776464 4.78826233
| 30> H -2.97444343 0.30658379 -1.58087510
| 31> H -7.99557068 0.25283048 -1.50859653
| 32> H -6.74625795 0.86806944 -3.57872640
| 33> H -4.27690677 0.90194537 -3.59382403
| 34> S 2.83931903 -0.21108455 -1.25787943
| 35> C 4.30057192 0.24036757 -0.35628016
| 36> N 4.06404921 0.48536651 0.92541941
| 37> N 2.75292914 0.34008411 1.28189398
| 38> C 1.97134604 -0.01935000 0.27132118
| 39> C 0.54730024 -0.23562888 0.39298583
| 40> N -0.23179655 -0.59961092 -0.61683848
| 41> N -1.54481448 -0.74321072 -0.26241567
| 42> C -1.79093654 -0.48757301 1.01360470
| 43> S -0.32360958 -0.04035651 1.91978144
| 44> C 8.21354573 0.52387075 -2.09644739
| 45> C 8.00946022 0.79268034 -0.73273862
| 46> C 6.72971884 0.70033983 -0.16193410
| 47> C 5.62961425 0.33287290 -0.96419771
| 48> C 5.82276712 0.06166600 -2.33026725
| 49> C 7.10887545 0.15868953 -2.88500535
| 50> O 9.07281536 1.14525943 0.03101988
| 51> O 7.27174715 -0.10730104 -4.20448680
| 52> H 4.98634145 -0.22243949 -2.96108365
| 53> H 8.79700568 1.30126405 0.94378226
| 54> H 8.19772894 -0.00563096 -4.46015940
| 55> H 6.57899570 0.90952584 0.89304824
| 56> H -6.51603799 -1.08469820 3.60416139
| 57> H 9.20819530 0.59903909 -2.52479273
| 58> *
| 59> $new_job
| 60> #
| 61> !wB97X-D3 def2-TZVP def2/J RIJCOSX Grid5 FinalGrid6 TightSCF
| 62> %pal
| 63>  nprocs 24
| 64> end
| 65> %elprop
| 66>    dipole     true
| 67>    quadrupole true
| 68> end
| 69> %tddft
| 70>   Mode sTDDFT
| 71>   nroots 2
| 72>   Ethresh 10.0
| 73>   maxcore 5000
| 74> end
| 75> * xyz 0 1
| 76> C -4.79736039 0.62461953 -2.68121362
| 77> C -4.05987663 0.29105469 -1.54819057
| 78> C -4.74024677 -0.06883701 -0.36922968
| 79> C -6.16343797 -0.06657600 -0.38185345
| 80> C -6.90900059 0.26235191 -1.52430158
| 81> C -6.20329680 0.60693788 -2.67420824
| 82> C -4.33845953 -0.44183314 0.97829468
| 83> C -5.54807640 -0.62628382 1.71208830
| 84> N -6.62723481 -0.41381972 0.87492631
| 85> C -5.57605422 -0.94936701 3.07666296
| 86> C -4.35177149 -1.07569451 3.72969186
| 87> C -3.14725316 -0.89869008 3.03781475
| 88> C -3.10141821 -0.59995855 1.66227737
| 89> H -2.21108186 -1.02097098 3.57784310
| 90> H -7.60048063 -0.46903931 1.14896595
| 91> H -4.32680335 -1.31776464 4.78826233
| 92> H -2.97444343 0.30658379 -1.58087510
| 93> H -7.99557068 0.25283048 -1.50859653
| 94> H -6.74625795 0.86806944 -3.57872640
| 95> H -4.27690677 0.90194537 -3.59382403
| 96> S 2.83931903 -0.21108455 -1.25787943
| 97> C 4.30057192 0.24036757 -0.35628016
| 98> N 4.06404921 0.48536651 0.92541941
| 99> N 2.75292914 0.34008411 1.28189398
|100> C 1.97134604 -0.01935000 0.27132118
|101> C 0.54730024 -0.23562888 0.39298583
|102> N -0.23179655 -0.59961092 -0.61683848
|103> N -1.54481448 -0.74321072 -0.26241567
|104> C -1.79093654 -0.48757301 1.01360470
|105> S -0.32360958 -0.04035651 1.91978144
|106> C 8.21354573 0.52387075 -2.09644739
|107> C 8.00946022 0.79268034 -0.73273862
|108> C 6.72971884 0.70033983 -0.16193410
|109> C 5.62961425 0.33287290 -0.96419771
|110> C 5.82276712 0.06166600 -2.33026725
|111> C 7.10887545 0.15868953 -2.88500535
|112> O 9.07281536 1.14525943 0.03101988
|113> O 7.27174715 -0.10730104 -4.20448680
|114> H 4.98634145 -0.22243949 -2.96108365
|115> H 8.79700568 1.30126405 0.94378226
|116> H 8.19772894 -0.00563096 -4.46015940
|117> H 6.57899570 0.90952584 0.89304824
|118> H -6.51603799 -1.08469820 3.60416139
|119> H 9.20819530 0.59903909 -2.52479273
|120> *
|121>
|122>                          ****END OF INPUT****
 Total Charge           Charge          ....    0
 Multiplicity           Mult            ....    1
 Number of Electrons    NEL             ....  228
Dispersion correction           -0.019257599
FINAL SINGLE POINT ENERGY     -2066.847573247569

CARTESIAN COORDINATES (ANGSTROEM)
---------------------------------
  C     -4.797360    0.624620   -2.681214
  C     -4.059877    0.291055   -1.548191
  C     -4.740247   -0.068837   -0.369230
  C     -6.163438   -0.066576   -0.381853
  C     -6.909001    0.262352   -1.524302
  C     -6.203297    0.606938   -2.674208
  C     -4.338460   -0.441833    0.978295
  C     -5.548076   -0.626284    1.712088
  N     -6.627235   -0.413820    0.874926
  C     -5.576054   -0.949367    3.076663
  C     -4.351771   -1.075695    3.729692
  C     -3.147253   -0.898690    3.037815
  C     -3.101418   -0.599959    1.662277
  H     -2.211082   -1.020971    3.577843
  H     -7.600481   -0.469039    1.148966
  H     -4.326803   -1.317765    4.788262
  H     -2.974443    0.306584   -1.580875
  H     -7.995571    0.252830   -1.508597
  H     -6.746258    0.868069   -3.578726
  H     -4.276907    0.901945   -3.593824
  S      2.839319   -0.211085   -1.257879
  C      4.300572    0.240368   -0.356280
  N      4.064049    0.485367    0.925419
  N      2.752929    0.340084    1.281894
  C      1.971346   -0.019350    0.271321
  C      0.547300   -0.235629    0.392986
  N     -0.231797   -0.599611   -0.616838
  N     -1.544814   -0.743211   -0.262416
  C     -1.790937   -0.487573    1.013605
  S     -0.323610   -0.040357    1.919781
  C      8.213546    0.523871   -2.096447
  C      8.009460    0.792680   -0.732739
  C      6.729719    0.700340   -0.161934
  C      5.629614    0.332873   -0.964198
  C      5.822767    0.061666   -2.330267
  C      7.108875    0.158690   -2.885005
  O      9.072815    1.145259    0.031020
  O      7.271747   -0.107301   -4.204487
  H      4.986341   -0.222439   -2.961084
  H      8.797006    1.301264    0.943782
  H      8.197729   -0.005631   -4.460159
  H      6.578996    0.909526    0.893048
  H     -6.516038   -1.084698    3.604161
  H      9.208195    0.599039   -2.524793

 Multiplicity           Mult            ....    1
 Number of Electrons    NEL             ....  228
 Basis Dimension        Dim             .... 1051

ORBITAL ENERGIES
----------------

  NO   OCC          E(Eh)            E(eV)
   0   2.0000     -89.010288     -2422.0931
   1   2.0000     -89.008206     -2422.0364
   2   2.0000     -19.278003      -524.5811
   3   2.0000     -19.276815      -524.5488
   4   2.0000     -14.474681      -393.8761
   5   2.0000     -14.473753      -393.8508
   6   2.0000     -14.471518      -393.7900
   7   2.0000     -14.467765      -393.6879
   8   2.0000     -14.464800      -393.6072
   9   2.0000     -10.380828      -282.4767
  10   2.0000     -10.379706      -282.4462
  11   2.0000     -10.376050      -282.3467
  12   2.0000     -10.375500      -282.3317
  13   2.0000     -10.367046      -282.1017
  14   2.0000     -10.365888      -282.0702
  15   2.0000     -10.335616      -281.2464
  16   2.0000     -10.326736      -281.0048
  17   2.0000     -10.326150      -280.9888
  18   2.0000     -10.321607      -280.8652
  19   2.0000     -10.305987      -280.4402
  20   2.0000     -10.300283      -280.2850
  21   2.0000     -10.296911      -280.1932
  22   2.0000     -10.295818      -280.1635
  23   2.0000     -10.295548      -280.1561
  24   2.0000     -10.294263      -280.1211
  25   2.0000     -10.291619      -280.0492
  26   2.0000     -10.289666      -279.9960
  27   2.0000     -10.285068      -279.8709
  28   2.0000     -10.284086      -279.8442
  29   2.0000     -10.278131      -279.6822
  30   2.0000     -10.271408      -279.4992
  31   2.0000      -8.106498      -220.5890
  32   2.0000      -8.104441      -220.5330
  33   2.0000      -6.059505      -164.8875
  34   2.0000      -6.057516      -164.8334
  35   2.0000      -6.055694      -164.7838
  36   2.0000      -6.053641      -164.7279
  37   2.0000      -6.053605      -164.7270
  38   2.0000      -6.051528      -164.6705
  39   2.0000      -1.197484       -32.5852
  40   2.0000      -1.194968       -32.5167
  41   2.0000      -1.157949       -31.5094
  42   2.0000      -1.149851       -31.2890
  43   2.0000      -1.108699       -30.1692
  44   2.0000      -0.999576       -27.1998
  45   2.0000      -0.992196       -26.9990
  46   2.0000      -0.975583       -26.5470
  47   2.0000      -0.964426       -26.2434
  48   2.0000      -0.946986       -25.7688
  49   2.0000      -0.935067       -25.4445
  50   2.0000      -0.916976       -24.9522
  51   2.0000      -0.902627       -24.5617
  52   2.0000      -0.879265       -23.9260
  53   2.0000      -0.875060       -23.8116
  54   2.0000      -0.867110       -23.5953
  55   2.0000      -0.847682       -23.0666
  56   2.0000      -0.842012       -22.9123
  57   2.0000      -0.788112       -21.4456
  58   2.0000      -0.778459       -21.1830
  59   2.0000      -0.765939       -20.8423
  60   2.0000      -0.744565       -20.2607
  61   2.0000      -0.732062       -19.9204
  62   2.0000      -0.724772       -19.7220
  63   2.0000      -0.716500       -19.4969
  64   2.0000      -0.708926       -19.2909
  65   2.0000      -0.686256       -18.6740
  66   2.0000      -0.665633       -18.1128
  67   2.0000      -0.659428       -17.9439
  68   2.0000      -0.645077       -17.5534
  69   2.0000      -0.626241       -17.0409
  70   2.0000      -0.621783       -16.9196
  71   2.0000      -0.617368       -16.7994
  72   2.0000      -0.613145       -16.6845
  73   2.0000      -0.604421       -16.4471
  74   2.0000      -0.584503       -15.9051
  75   2.0000      -0.577730       -15.7208
  76   2.0000      -0.571348       -15.5472
  77   2.0000      -0.565196       -15.3798
  78   2.0000      -0.556258       -15.1366
  79   2.0000      -0.551779       -15.0147
  80   2.0000      -0.547189       -14.8898
  81   2.0000      -0.540609       -14.7107
  82   2.0000      -0.538819       -14.6620
  83   2.0000      -0.535514       -14.5721
  84   2.0000      -0.530220       -14.4280
  85   2.0000      -0.526732       -14.3331
  86   2.0000      -0.523693       -14.2504
  87   2.0000      -0.519947       -14.1485
  88   2.0000      -0.514857       -14.0100
  89   2.0000      -0.510840       -13.9007
  90   2.0000      -0.495211       -13.4754
  91   2.0000      -0.478894       -13.0314
  92   2.0000      -0.474062       -12.8999
  93   2.0000      -0.472713       -12.8632
  94   2.0000      -0.469353       -12.7717
  95   2.0000      -0.464857       -12.6494
  96   2.0000      -0.459012       -12.4903
  97   2.0000      -0.446768       -12.1572
  98   2.0000      -0.442628       -12.0445
  99   2.0000      -0.435389       -11.8475
 100   2.0000      -0.421145       -11.4599
 101   2.0000      -0.414699       -11.2845
 102   2.0000      -0.401868       -10.9354
 103   2.0000      -0.397774       -10.8240
 104   2.0000      -0.393721       -10.7137
 105   2.0000      -0.383183       -10.4269
 106   2.0000      -0.376929       -10.2568
 107   2.0000      -0.371703       -10.1146
 108   2.0000      -0.363901        -9.9023
 109   2.0000      -0.341283        -9.2868
 110   2.0000      -0.319700        -8.6995
 111   2.0000      -0.317181        -8.6309
 112   2.0000      -0.301116        -8.1938
 113   2.0000      -0.291139        -7.9223
 114   0.0000      -0.035720        -0.9720
 115   0.0000       0.001009         0.0275
 116   0.0000       0.029002         0.7892
 117   0.0000       0.049506         1.3471
 118   0.0000       0.064104         1.7444

MULLIKEN ATOMIC CHARGES
-----------------------
   0 C :   -0.175402
   1 C :   -0.133377
   2 C :   -0.030010
   3 C :    0.178568
   4 C :   -0.244345
   5 C :   -0.074307
   6 C :   -0.027923
   7 C :    0.187194
   8 N :   -0.302691
   9 C :   -0.224180
  10 C :   -0.091874
  11 C :   -0.281271
  12 C :    0.125938
  13 H :    0.129201
  14 H :    0.237029
  15 H :    0.127839
  16 H :    0.156604
  17 H :    0.112706
  18 H :    0.122588
  19 H :    0.119393
  20 S :    0.070635
  21 C :    0.233574
  22 N :   -0.129773
  23 N :   -0.192749
  24 C :    0.087849
  25 C :    0.142765
  26 N :   -0.168892
  27 N :   -0.191308
  28 C :    0.157781
  29 S :    0.066063
  30 C :   -0.301025
  31 C :    0.295469
  32 C :   -0.330094
  33 C :   -0.018909
  34 C :   -0.317839
  35 C :    0.301677
  36 O :   -0.414619
  37 O :   -0.409837
  38 H :    0.137262
  39 H :    0.335791
  40 H :    0.333186
  41 H :    0.152000
  42 H :    0.121257
  43 H :    0.128054
Sum of atomic charges:   -0.0000000

LOEWDIN ATOMIC CHARGES
----------------------
   0 C :   -0.157600
   1 C :   -0.091642
   2 C :   -0.077952
   3 C :   -0.144362
   4 C :   -0.136253
   5 C :   -0.138737
   6 C :   -0.028023
   7 C :   -0.143087
   8 N :    0.201690
   9 C :   -0.117452
  10 C :   -0.141178
  11 C :   -0.122911
  12 C :   -0.116284
  13 H :    0.145468
  14 H :    0.193645
  15 H :    0.147992
  16 H :    0.153996
  17 H :    0.142567
  18 H :    0.144624
  19 H :    0.144175
  20 S :    0.743349
  21 C :   -0.383055
  22 N :    0.044232
  23 N :    0.045781
  24 C :   -0.458652
  25 C :   -0.460510
  26 N :    0.044847
  27 N :    0.048015
  28 C :   -0.373477
  29 S :    0.739149
  30 C :   -0.118192
  31 C :   -0.266243
  32 C :   -0.105969
  33 C :   -0.150703
  34 C :   -0.106156
  35 C :   -0.264662
  36 O :    0.087878
  37 O :    0.089681
  38 H :    0.149605
  39 H :    0.195354
  40 H :    0.193568
  41 H :    0.153080
  42 H :    0.145893
  43 H :    0.148512

  Mayer bond orders larger than 0.1
B(  0-C ,  1-C ) :   1.5379 B(  0-C ,  5-C ) :   1.3520 B(  0-C , 19-H ) :   0.9865
B(  1-C ,  2-C ) :   1.2659 B(  1-C , 16-H ) :   0.9370 B(  2-C ,  3-C ) :   1.3539
B(  2-C ,  6-C ) :   1.0866 B(  3-C ,  4-C ) :   1.3005 B(  3-C ,  8-N ) :   1.1142
B(  4-C ,  5-C ) :   1.4816 B(  4-C , 17-H ) :   0.9780 B(  5-C , 18-H ) :   0.9808
B(  6-C ,  7-C ) :   1.3214 B(  6-C , 12-C ) :   1.2431 B(  7-C ,  8-N ) :   1.1558
B(  7-C ,  9-C ) :   1.2857 B(  8-N , 14-H ) :   0.9126 B(  9-C , 10-C ) :   1.4664
B(  9-C , 42-H ) :   0.9736 B( 10-C , 11-C ) :   1.4188 B( 10-C , 15-H ) :   0.9798
B( 11-C , 12-C ) :   1.4014 B( 11-C , 13-H ) :   0.9616 B( 12-C , 28-C ) :   0.9442
B( 20-S , 21-C ) :   1.2853 B( 20-S , 24-C ) :   1.3110 B( 21-C , 22-N ) :   1.6934
B( 21-C , 33-C ) :   0.9531 B( 22-N , 23-N ) :   1.1593 B( 23-N , 24-C ) :   1.7069
B( 24-C , 25-C ) :   0.9310 B( 25-C , 26-N ) :   1.7028 B( 25-C , 29-S ) :   1.2982
B( 26-N , 27-N ) :   1.1236 B( 27-N , 28-C ) :   1.6436 B( 28-C , 29-S ) :   1.2888
B( 30-C , 31-C ) :   1.4241 B( 30-C , 35-C ) :   1.3605 B( 30-C , 43-H ) :   0.9413
B( 31-C , 32-C ) :   1.3319 B( 31-C , 36-O ) :   1.1353 B( 32-C , 33-C ) :   1.4581
B( 32-C , 41-H ) :   0.9273 B( 33-C , 34-C ) :   1.3582 B( 34-C , 35-C ) :   1.4501
B( 34-C , 38-H ) :   0.9438 B( 35-C , 37-O ) :   1.1548 B( 36-O , 39-H ) :   0.8745
B( 37-O , 40-H ) :   0.8761

Dispersion correction           -0.019257599
FINAL SINGLE POINT ENERGY     -2066.847573143099

DIPOLE MOMENT
-------------
                                X             Y             Z
Electronic contribution:      8.53618      -1.23574       3.97162
Nuclear contribution   :     -8.98610       1.35747      -3.51135
                        -----------------------------------------
Total Dipole Moment    :     -0.44992       0.12173       0.46027
                        -----------------------------------------
Magnitude (a.u.)       :      0.65505
Magnitude (Debye)      :      1.66501

                             ****ORCA TERMINATED NORMALLY****
TOTAL RUN TIME: 0 days 0 hours 10 minutes 28 seconds 220 msec
