                         Program Version 4.0.0 -  RELEASE  -
|  1> #
|  2> !wB97X-D3 def2-TZVP def2/J RIJCOSX Grid5 FinalGrid6 TightSCF
|  3> %pal
|  4>  nprocs 24
|  5> end
|  6> %tddft
|  7>   Mode sTDDFT
|  8>   nroots 2
|  9>   Ethresh 10.0
| 10>   maxcore 5000
| 11>   triplets true
| 12> end
| 13> * xyz 0 1
| 14> C -4.66992838 -2.13394931 -2.18721577
| 15> C -3.94349444 -1.34459613 -1.29934561
| 16> C -4.63452228 -0.50877083 -0.40127776
| 17> C -6.05678762 -0.48852914 -0.45505167
| 18> C -6.79126786 -1.28735415 -1.34478659
| 19> C -6.07556276 -2.11309487 -2.20763872
| 20> C -4.24626213 0.44979530 0.62230870
| 21> C -5.46018301 1.01634643 1.11211292
| 22> N -6.53143323 0.42663747 0.46800765
| 23> C -5.49602804 2.02885504 2.08246504
| 24> C -4.27629253 2.49641550 2.56606011
| 25> C -3.06697005 1.95520363 2.11055517
| 26> C -3.01710328 0.92104224 1.15710239
| 27> H -2.13411663 2.32716122 2.52549088
| 28> H -7.50564642 0.65647104 0.62139945
| 29> H -4.25827199 3.28542833 3.31228354
| 30> H -2.85906694 -1.37885691 -1.31398132
| 31> H -7.87732660 -1.25601708 -1.36270566
| 32> H -6.60974084 -2.74535399 -2.91174437
| 33> H -4.14033853 -2.78092394 -2.88099682
| 34> C 4.05285217 -0.25152860 -0.06313502
| 35> N 3.84404017 1.00882733 0.35155364
| 36> O 2.50514014 1.13833957 0.54818497
| 37> C 1.87896907 -0.01682444 0.26377201
| 38> C 2.81105347 -0.95304256 -0.13525767
| 39> C 0.43172939 -0.06822244 0.41667496
| 40> N -0.26910088 -1.18213579 0.15592863
| 41> O -1.57287133 -0.88330302 0.39694869
| 42> C -1.69763712 0.39093648 0.79714581
| 43> C -0.44286433 0.97190097 0.84228433
| 44> H -0.18594193 1.98564044 1.11212651
| 45> H 2.63208292 -1.97690303 -0.43106365
| 46> C 5.37966410 -0.75609002 -0.37450005
| 47> S 5.63451924 -2.39805815 -0.91255874
| 48> C 7.35311303 -2.20779659 -1.05464497
| 49> C 7.73146998 -0.91517479 -0.69875221
| 50> C 6.61187567 -0.08411238 -0.31057677
| 51> N 9.02615851 -0.42751502 -0.69919292
| 52> C 9.15374448 0.83349396 -0.32374767
| 53> C 8.03982271 1.65917935 0.06209890
| 54> N 6.78939679 1.22763033 0.07471366
| 55> H 10.16582549 1.25866304 -0.31047032
| 56> H 8.22119571 2.69889112 0.36274055
| 57> H -6.43888105 2.43796611 2.43415419
| 58> H 7.99488715 -3.01647175 -1.37996842
| 59> *
| 60> $new_job
| 61> #
| 62> !wB97X-D3 def2-TZVP def2/J RIJCOSX Grid5 FinalGrid6 TightSCF
| 63> %pal
| 64>  nprocs 24
| 65> end
| 66> %elprop
| 67>    dipole     true
| 68>    quadrupole true
| 69> end
| 70> %tddft
| 71>   Mode sTDDFT
| 72>   nroots 2
| 73>   Ethresh 10.0
| 74>   maxcore 5000
| 75> end
| 76> * xyz 0 1
| 77> C -4.66992838 -2.13394931 -2.18721577
| 78> C -3.94349444 -1.34459613 -1.29934561
| 79> C -4.63452228 -0.50877083 -0.40127776
| 80> C -6.05678762 -0.48852914 -0.45505167
| 81> C -6.79126786 -1.28735415 -1.34478659
| 82> C -6.07556276 -2.11309487 -2.20763872
| 83> C -4.24626213 0.44979530 0.62230870
| 84> C -5.46018301 1.01634643 1.11211292
| 85> N -6.53143323 0.42663747 0.46800765
| 86> C -5.49602804 2.02885504 2.08246504
| 87> C -4.27629253 2.49641550 2.56606011
| 88> C -3.06697005 1.95520363 2.11055517
| 89> C -3.01710328 0.92104224 1.15710239
| 90> H -2.13411663 2.32716122 2.52549088
| 91> H -7.50564642 0.65647104 0.62139945
| 92> H -4.25827199 3.28542833 3.31228354
| 93> H -2.85906694 -1.37885691 -1.31398132
| 94> H -7.87732660 -1.25601708 -1.36270566
| 95> H -6.60974084 -2.74535399 -2.91174437
| 96> H -4.14033853 -2.78092394 -2.88099682
| 97> C 4.05285217 -0.25152860 -0.06313502
| 98> N 3.84404017 1.00882733 0.35155364
| 99> O 2.50514014 1.13833957 0.54818497
|100> C 1.87896907 -0.01682444 0.26377201
|101> C 2.81105347 -0.95304256 -0.13525767
|102> C 0.43172939 -0.06822244 0.41667496
|103> N -0.26910088 -1.18213579 0.15592863
|104> O -1.57287133 -0.88330302 0.39694869
|105> C -1.69763712 0.39093648 0.79714581
|106> C -0.44286433 0.97190097 0.84228433
|107> H -0.18594193 1.98564044 1.11212651
|108> H 2.63208292 -1.97690303 -0.43106365
|109> C 5.37966410 -0.75609002 -0.37450005
|110> S 5.63451924 -2.39805815 -0.91255874
|111> C 7.35311303 -2.20779659 -1.05464497
|112> C 7.73146998 -0.91517479 -0.69875221
|113> C 6.61187567 -0.08411238 -0.31057677
|114> N 9.02615851 -0.42751502 -0.69919292
|115> C 9.15374448 0.83349396 -0.32374767
|116> C 8.03982271 1.65917935 0.06209890
|117> N 6.78939679 1.22763033 0.07471366
|118> H 10.16582549 1.25866304 -0.31047032
|119> H 8.22119571 2.69889112 0.36274055
|120> H -6.43888105 2.43796611 2.43415419
|121> H 7.99488715 -3.01647175 -1.37996842
|122> *
|123>
|124>                          ****END OF INPUT****
 Total Charge           Charge          ....    0
 Multiplicity           Mult            ....    1
 Number of Electrons    NEL             ....  224
Dispersion correction           -0.019636528
FINAL SINGLE POINT ENERGY     -1744.775898102875

CARTESIAN COORDINATES (ANGSTROEM)
---------------------------------
  C     -4.669928   -2.133949   -2.187216
  C     -3.943494   -1.344596   -1.299346
  C     -4.634522   -0.508771   -0.401278
  C     -6.056788   -0.488529   -0.455052
  C     -6.791268   -1.287354   -1.344787
  C     -6.075563   -2.113095   -2.207639
  C     -4.246262    0.449795    0.622309
  C     -5.460183    1.016346    1.112113
  N     -6.531433    0.426637    0.468008
  C     -5.496028    2.028855    2.082465
  C     -4.276293    2.496415    2.566060
  C     -3.066970    1.955204    2.110555
  C     -3.017103    0.921042    1.157102
  H     -2.134117    2.327161    2.525491
  H     -7.505646    0.656471    0.621399
  H     -4.258272    3.285428    3.312284
  H     -2.859067   -1.378857   -1.313981
  H     -7.877327   -1.256017   -1.362706
  H     -6.609741   -2.745354   -2.911744
  H     -4.140339   -2.780924   -2.880997
  C      4.052852   -0.251529   -0.063135
  N      3.844040    1.008827    0.351554
  O      2.505140    1.138340    0.548185
  C      1.878969   -0.016824    0.263772
  C      2.811053   -0.953043   -0.135258
  C      0.431729   -0.068222    0.416675
  N     -0.269101   -1.182136    0.155929
  O     -1.572871   -0.883303    0.396949
  C     -1.697637    0.390936    0.797146
  C     -0.442864    0.971901    0.842284
  H     -0.185942    1.985640    1.112127
  H      2.632083   -1.976903   -0.431064
  C      5.379664   -0.756090   -0.374500
  S      5.634519   -2.398058   -0.912559
  C      7.353113   -2.207797   -1.054645
  C      7.731470   -0.915175   -0.698752
  C      6.611876   -0.084112   -0.310577
  N      9.026159   -0.427515   -0.699193
  C      9.153744    0.833494   -0.323748
  C      8.039823    1.659179    0.062099
  N      6.789397    1.227630    0.074714
  H     10.165825    1.258663   -0.310470
  H      8.221196    2.698891    0.362741
  H     -6.438881    2.437966    2.434154
  H      7.994887   -3.016472   -1.379968

 Multiplicity           Mult            ....    1
 Number of Electrons    NEL             ....  224
 Basis Dimension        Dim             .... 1076

ORBITAL ENERGIES
----------------

  NO   OCC          E(Eh)            E(eV)
   0   2.0000     -89.013304     -2422.1752
   1   2.0000     -19.341031      -526.2962
   2   2.0000     -19.336750      -526.1797
   3   2.0000     -14.485199      -394.1623
   4   2.0000     -14.476834      -393.9347
   5   2.0000     -14.473339      -393.8396
   6   2.0000     -14.452341      -393.2682
   7   2.0000     -14.448100      -393.1528
   8   2.0000     -10.370222      -282.1881
   9   2.0000     -10.369808      -282.1768
  10   2.0000     -10.346611      -281.5456
  11   2.0000     -10.342661      -281.4381
  12   2.0000     -10.341801      -281.4147
  13   2.0000     -10.340284      -281.3734
  14   2.0000     -10.339003      -281.3386
  15   2.0000     -10.336502      -281.2705
  16   2.0000     -10.336400      -281.2677
  17   2.0000     -10.335671      -281.2479
  18   2.0000     -10.331279      -281.1284
  19   2.0000     -10.329806      -281.0883
  20   2.0000     -10.320503      -280.8352
  21   2.0000     -10.306321      -280.4492
  22   2.0000     -10.301459      -280.3169
  23   2.0000     -10.300730      -280.2971
  24   2.0000     -10.299553      -280.2651
  25   2.0000     -10.296879      -280.1923
  26   2.0000     -10.294417      -280.1253
  27   2.0000     -10.293880      -280.1107
  28   2.0000     -10.288707      -279.9699
  29   2.0000     -10.287424      -279.9350
  30   2.0000     -10.284824      -279.8643
  31   2.0000     -10.276234      -279.6306
  32   2.0000      -8.108573      -220.6455
  33   2.0000      -6.061418      -164.9396
  34   2.0000      -6.057447      -164.8315
  35   2.0000      -6.056638      -164.8095
  36   2.0000      -1.289640       -35.0929
  37   2.0000      -1.283069       -34.9141
  38   2.0000      -1.110769       -30.2256
  39   2.0000      -1.102434       -29.9988
  40   2.0000      -1.032188       -28.0873
  41   2.0000      -1.017234       -27.6803
  42   2.0000      -1.009139       -27.4601
  43   2.0000      -0.988111       -26.8879
  44   2.0000      -0.979411       -26.6511
  45   2.0000      -0.967984       -26.3402
  46   2.0000      -0.937690       -25.5158
  47   2.0000      -0.918726       -24.9998
  48   2.0000      -0.905310       -24.6347
  49   2.0000      -0.880195       -23.9513
  50   2.0000      -0.875197       -23.8153
  51   2.0000      -0.861850       -23.4521
  52   2.0000      -0.849813       -23.1246
  53   2.0000      -0.844160       -22.9708
  54   2.0000      -0.786629       -21.4053
  55   2.0000      -0.779195       -21.2030
  56   2.0000      -0.772729       -21.0270
  57   2.0000      -0.762823       -20.7575
  58   2.0000      -0.742577       -20.2066
  59   2.0000      -0.725658       -19.7462
  60   2.0000      -0.722500       -19.6602
  61   2.0000      -0.717159       -19.5149
  62   2.0000      -0.708100       -19.2684
  63   2.0000      -0.692248       -18.8370
  64   2.0000      -0.668721       -18.1968
  65   2.0000      -0.661936       -18.0122
  66   2.0000      -0.637007       -17.3338
  67   2.0000      -0.630985       -17.1700
  68   2.0000      -0.618851       -16.8398
  69   2.0000      -0.610223       -16.6050
  70   2.0000      -0.608430       -16.5562
  71   2.0000      -0.601881       -16.3780
  72   2.0000      -0.599280       -16.3072
  73   2.0000      -0.592568       -16.1246
  74   2.0000      -0.590034       -16.0556
  75   2.0000      -0.567371       -15.4390
  76   2.0000      -0.566152       -15.4058
  77   2.0000      -0.557144       -15.1607
  78   2.0000      -0.551741       -15.0136
  79   2.0000      -0.551009       -14.9937
  80   2.0000      -0.545033       -14.8311
  81   2.0000      -0.536247       -14.5920
  82   2.0000      -0.533969       -14.5300
  83   2.0000      -0.532785       -14.4978
  84   2.0000      -0.526666       -14.3313
  85   2.0000      -0.512826       -13.9547
  86   2.0000      -0.509353       -13.8602
  87   2.0000      -0.505214       -13.7476
  88   2.0000      -0.492024       -13.3887
  89   2.0000      -0.481004       -13.0888
  90   2.0000      -0.475888       -12.9496
  91   2.0000      -0.471274       -12.8240
  92   2.0000      -0.470470       -12.8021
  93   2.0000      -0.462719       -12.5912
  94   2.0000      -0.449539       -12.2326
  95   2.0000      -0.448576       -12.2064
  96   2.0000      -0.446187       -12.1414
  97   2.0000      -0.439507       -11.9596
  98   2.0000      -0.429876       -11.6975
  99   2.0000      -0.424673       -11.5559
 100   2.0000      -0.415739       -11.3128
 101   2.0000      -0.409220       -11.1355
 102   2.0000      -0.402615       -10.9557
 103   2.0000      -0.394613       -10.7380
 104   2.0000      -0.374744       -10.1973
 105   2.0000      -0.353250        -9.6124
 106   2.0000      -0.347119        -9.4456
 107   2.0000      -0.344744        -9.3809
 108   2.0000      -0.334560        -9.1038
 109   2.0000      -0.304112        -8.2753
 110   2.0000      -0.303898        -8.2695
 111   2.0000      -0.292791        -7.9672
 112   0.0000      -0.036623        -0.9966
 113   0.0000      -0.002123        -0.0578
 114   0.0000       0.019933         0.5424
 115   0.0000       0.045090         1.2270
 116   0.0000       0.051143         1.3917

MULLIKEN ATOMIC CHARGES
-----------------------
   0 C :   -0.172500
   1 C :   -0.124386
   2 C :   -0.052728
   3 C :    0.162223
   4 C :   -0.231453
   5 C :   -0.081312
   6 C :   -0.023753
   7 C :    0.175171
   8 N :   -0.302847
   9 C :   -0.225047
  10 C :   -0.090623
  11 C :   -0.286507
  12 C :    0.074237
  13 H :    0.128378
  14 H :    0.237256
  15 H :    0.126631
  16 H :    0.148254
  17 H :    0.114633
  18 H :    0.123742
  19 H :    0.120528
  20 C :    0.311527
  21 N :   -0.137604
  22 O :   -0.117073
  23 C :    0.209239
  24 C :   -0.290044
  25 C :    0.137494
  26 N :   -0.176482
  27 O :   -0.129792
  28 C :    0.304981
  29 C :   -0.259302
  30 H :    0.178522
  31 H :    0.178149
  32 C :   -0.093914
  33 S :    0.106753
  34 C :   -0.227585
  35 C :    0.078793
  36 C :    0.039813
  37 N :   -0.244575
  38 C :    0.001410
  39 C :   -0.035662
  40 N :   -0.235336
  41 H :    0.140709
  42 H :    0.140231
  43 H :    0.122493
  44 H :    0.177361
Sum of atomic charges:   -0.0000000

LOEWDIN ATOMIC CHARGES
----------------------
   0 C :   -0.156637
   1 C :   -0.096613
   2 C :   -0.080613
   3 C :   -0.144382
   4 C :   -0.133664
   5 C :   -0.138910
   6 C :   -0.034443
   7 C :   -0.143069
   8 N :    0.201979
   9 C :   -0.120512
  10 C :   -0.140052
  11 C :   -0.106630
  12 C :   -0.082133
  13 H :    0.151085
  14 H :    0.193917
  15 H :    0.147852
  16 H :    0.151828
  17 H :    0.143157
  18 H :    0.145088
  19 H :    0.144580
  20 C :   -0.255641
  21 N :    0.055104
  22 O :    0.302390
  23 C :   -0.219250
  24 C :   -0.116040
  25 C :   -0.227500
  26 N :    0.037984
  27 O :    0.310402
  28 C :   -0.197743
  29 C :   -0.116693
  30 H :    0.153073
  31 H :    0.151541
  32 C :   -0.296546
  33 S :    0.780392
  34 C :   -0.341058
  35 C :   -0.243082
  36 C :   -0.194484
  37 N :    0.161728
  38 C :   -0.200824
  39 C :   -0.196981
  40 N :    0.183270
  41 H :    0.142427
  42 H :    0.143443
  43 H :    0.145589
  44 H :    0.136673

  Mayer bond orders larger than 0.1
B(  0-C ,  1-C ) :   1.5312 B(  0-C ,  5-C ) :   1.3548 B(  0-C , 19-H ) :   0.9851
B(  1-C ,  2-C ) :   1.2803 B(  1-C , 16-H ) :   0.9344 B(  2-C ,  3-C ) :   1.3704
B(  2-C ,  6-C ) :   1.0839 B(  3-C ,  4-C ) :   1.3086 B(  3-C ,  8-N ) :   1.1175
B(  4-C ,  5-C ) :   1.4864 B(  4-C , 17-H ) :   0.9754 B(  5-C , 18-H ) :   0.9799
B(  6-C ,  7-C ) :   1.3332 B(  6-C , 12-C ) :   1.2471 B(  7-C ,  8-N ) :   1.1546
B(  7-C ,  9-C ) :   1.2914 B(  8-N , 14-H ) :   0.9127 B(  9-C , 10-C ) :   1.4623
B(  9-C , 43-H ) :   0.9720 B( 10-C , 11-C ) :   1.4145 B( 10-C , 15-H ) :   0.9828
B( 11-C , 12-C ) :   1.4390 B( 11-C , 13-H ) :   0.9660 B( 12-C , 28-C ) :   0.9589
B( 20-C , 21-N ) :   1.6439 B( 20-C , 24-C ) :   1.2390 B( 20-C , 32-C ) :   0.8708
B( 20-C , 33-S ) :  -0.1236 B( 21-N , 22-O ) :   0.9653 B( 21-N , 23-C ) :   0.1236
B( 22-O , 23-C ) :   1.2077 B( 23-C , 24-C ) :   1.6573 B( 23-C , 25-C ) :   0.9836
B( 24-C , 31-H ) :   0.9033 B( 25-C , 26-N ) :   1.6533 B( 25-C , 29-C ) :   1.2850
B( 26-N , 27-O ) :   0.9951 B( 26-N , 28-C ) :   0.1262 B( 27-O , 28-C ) :   1.1666
B( 28-C , 29-C ) :   1.6005 B( 29-C , 30-H ) :   0.9149 B( 32-C , 33-S ) :   1.3705
B( 32-C , 36-C ) :   1.3596 B( 33-S , 34-C ) :   1.3449 B( 34-C , 35-C ) :   1.5389
B( 34-C , 44-H ) :   0.9221 B( 35-C , 36-C ) :   1.2184 B( 35-C , 37-N ) :   1.2481
B( 36-C , 40-N ) :   1.2508 B( 37-N , 38-C ) :   1.6859 B( 38-C , 39-C ) :   1.1548
B( 38-C , 41-H ) :   0.9624 B( 39-C , 40-N ) :   1.7160 B( 39-C , 42-H ) :   0.9663

Dispersion correction           -0.019636528
FINAL SINGLE POINT ENERGY     -1744.775898093357

DIPOLE MOMENT
-------------
                                X             Y             Z
Electronic contribution:     18.97712      -2.86116       0.46620
Nuclear contribution   :    -20.28056       3.20625      -0.29828
                        -----------------------------------------
Total Dipole Moment    :     -1.30344       0.34509       0.16792
                        -----------------------------------------
Magnitude (a.u.)       :      1.35876
Magnitude (Debye)      :      3.45370

                             ****ORCA TERMINATED NORMALLY****
TOTAL RUN TIME: 0 days 0 hours 8 minutes 17 seconds 779 msec
