                         Program Version 4.0.0 -  RELEASE  -
|  1> #
|  2> !wB97X-D3 def2-TZVP def2/J RIJCOSX Grid5 FinalGrid6 TightSCF
|  3> %pal
|  4>  nprocs 24
|  5> end
|  6> %tddft
|  7>   Mode sTDDFT
|  8>   nroots 2
|  9>   Ethresh 10.0
| 10>   maxcore 5000
| 11>   triplets true
| 12> end
| 13> * xyz 0 1
| 14> C -7.31687666 2.41123758 0.78110651
| 15> C -6.00390015 2.02860412 0.90473147
| 16> C -5.51516925 0.88306251 0.19755469
| 17> C -6.42042611 0.14736170 -0.65155446
| 18> C -7.78241276 0.58113125 -0.75087490
| 19> C -8.21229341 1.68132161 -0.05104655
| 20> N -4.21804015 0.51139493 0.33501906
| 21> C -3.80002588 -0.58031192 -0.34689492
| 22> C -4.70304758 -1.29661322 -1.22319323
| 23> N -6.00070928 -0.92805385 -1.36129682
| 24> C -4.21452345 -2.41740807 -1.96797395
| 25> C -2.90028452 -2.79936691 -1.85239231
| 26> C -2.01272098 -2.10742609 -0.98937952
| 27> C -2.42530594 -1.02446339 -0.22869272
| 28> H -0.98679104 -2.45792410 -0.90990884
| 29> H -2.52646139 -3.64921173 -2.41787426
| 30> H -4.89651208 -2.95493225 -2.62119658
| 31> H -9.24628975 2.00805358 -0.12788357
| 32> H -5.32121060 2.58558312 1.54181974
| 33> H -7.68631739 3.27941456 1.32100684
| 34> S 2.82526094 1.42643594 2.81306640
| 35> C 2.09433958 0.55300428 1.47296802
| 36> C 3.05938897 0.15691593 0.56826992
| 37> C 4.39080942 0.55276949 0.93001747
| 38> C 4.41640336 1.25170814 2.12376283
| 39> C 0.66603921 0.32942203 1.41213291
| 40> C -0.05399618 -0.32858296 0.43526418
| 41> C -1.46978837 -0.35553050 0.67685234
| 42> C -1.80756229 0.28199698 1.85789426
| 43> S -0.40609051 0.91858478 2.67632431
| 44> H 0.41098535 -0.75666492 -0.44656061
| 45> H 2.81896573 -0.38599188 -0.33930868
| 46> H -2.79820019 0.37564323 2.28253635
| 47> H 5.29046279 1.64451427 2.62706526
| 48> C 7.90002268 -0.35137892 -1.41935248
| 49> C 6.69993052 -1.04627226 -1.62189928
| 50> C 5.55083277 -0.75550788 -0.86398363
| 51> C 5.59022489 0.24598640 0.12530254
| 52> C 6.79397450 0.94733295 0.33540389
| 53> C 7.93141247 0.64646760 -0.43517291
| 54> O 6.65524582 -2.01715012 -2.56991226
| 55> O 9.08625159 1.33030849 -0.23046118
| 56> H 6.84736475 1.73436755 1.08283547
| 57> H 5.77548915 -2.41438963 -2.60381366
| 58> H 8.96948444 1.98699629 0.46814342
| 59> H 4.63919276 -1.32026974 -1.03789022
| 60> H -8.46724668 0.02615081 -1.38714196
| 61> H 8.78032089 -0.57861981 -2.00871841
| 62> *
| 63> $new_job
| 64> #
| 65> !wB97X-D3 def2-TZVP def2/J RIJCOSX Grid5 FinalGrid6 TightSCF
| 66> %pal
| 67>  nprocs 24
| 68> end
| 69> %elprop
| 70>    dipole     true
| 71>    quadrupole true
| 72> end
| 73> %tddft
| 74>   Mode sTDDFT
| 75>   nroots 2
| 76>   Ethresh 10.0
| 77>   maxcore 5000
| 78> end
| 79> * xyz 0 1
| 80> C -7.31687666 2.41123758 0.78110651
| 81> C -6.00390015 2.02860412 0.90473147
| 82> C -5.51516925 0.88306251 0.19755469
| 83> C -6.42042611 0.14736170 -0.65155446
| 84> C -7.78241276 0.58113125 -0.75087490
| 85> C -8.21229341 1.68132161 -0.05104655
| 86> N -4.21804015 0.51139493 0.33501906
| 87> C -3.80002588 -0.58031192 -0.34689492
| 88> C -4.70304758 -1.29661322 -1.22319323
| 89> N -6.00070928 -0.92805385 -1.36129682
| 90> C -4.21452345 -2.41740807 -1.96797395
| 91> C -2.90028452 -2.79936691 -1.85239231
| 92> C -2.01272098 -2.10742609 -0.98937952
| 93> C -2.42530594 -1.02446339 -0.22869272
| 94> H -0.98679104 -2.45792410 -0.90990884
| 95> H -2.52646139 -3.64921173 -2.41787426
| 96> H -4.89651208 -2.95493225 -2.62119658
| 97> H -9.24628975 2.00805358 -0.12788357
| 98> H -5.32121060 2.58558312 1.54181974
| 99> H -7.68631739 3.27941456 1.32100684
|100> S 2.82526094 1.42643594 2.81306640
|101> C 2.09433958 0.55300428 1.47296802
|102> C 3.05938897 0.15691593 0.56826992
|103> C 4.39080942 0.55276949 0.93001747
|104> C 4.41640336 1.25170814 2.12376283
|105> C 0.66603921 0.32942203 1.41213291
|106> C -0.05399618 -0.32858296 0.43526418
|107> C -1.46978837 -0.35553050 0.67685234
|108> C -1.80756229 0.28199698 1.85789426
|109> S -0.40609051 0.91858478 2.67632431
|110> H 0.41098535 -0.75666492 -0.44656061
|111> H 2.81896573 -0.38599188 -0.33930868
|112> H -2.79820019 0.37564323 2.28253635
|113> H 5.29046279 1.64451427 2.62706526
|114> C 7.90002268 -0.35137892 -1.41935248
|115> C 6.69993052 -1.04627226 -1.62189928
|116> C 5.55083277 -0.75550788 -0.86398363
|117> C 5.59022489 0.24598640 0.12530254
|118> C 6.79397450 0.94733295 0.33540389
|119> C 7.93141247 0.64646760 -0.43517291
|120> O 6.65524582 -2.01715012 -2.56991226
|121> O 9.08625159 1.33030849 -0.23046118
|122> H 6.84736475 1.73436755 1.08283547
|123> H 5.77548915 -2.41438963 -2.60381366
|124> H 8.96948444 1.98699629 0.46814342
|125> H 4.63919276 -1.32026974 -1.03789022
|126> H -8.46724668 0.02615081 -1.38714196
|127> H 8.78032089 -0.57861981 -2.00871841
|128> *
|129>
|130>                          ****END OF INPUT****
 Total Charge           Charge          ....    0
 Multiplicity           Mult            ....    1
 Number of Electrons    NEL             ....  234
Dispersion correction           -0.021402478
FINAL SINGLE POINT ENERGY     -2056.834191952408

CARTESIAN COORDINATES (ANGSTROEM)
---------------------------------
  C     -7.316877    2.411238    0.781107
  C     -6.003900    2.028604    0.904731
  C     -5.515169    0.883063    0.197555
  C     -6.420426    0.147362   -0.651554
  C     -7.782413    0.581131   -0.750875
  C     -8.212293    1.681322   -0.051047
  N     -4.218040    0.511395    0.335019
  C     -3.800026   -0.580312   -0.346895
  C     -4.703048   -1.296613   -1.223193
  N     -6.000709   -0.928054   -1.361297
  C     -4.214523   -2.417408   -1.967974
  C     -2.900285   -2.799367   -1.852392
  C     -2.012721   -2.107426   -0.989380
  C     -2.425306   -1.024463   -0.228693
  H     -0.986791   -2.457924   -0.909909
  H     -2.526461   -3.649212   -2.417874
  H     -4.896512   -2.954932   -2.621197
  H     -9.246290    2.008054   -0.127884
  H     -5.321211    2.585583    1.541820
  H     -7.686317    3.279415    1.321007
  S      2.825261    1.426436    2.813066
  C      2.094340    0.553004    1.472968
  C      3.059389    0.156916    0.568270
  C      4.390809    0.552769    0.930017
  C      4.416403    1.251708    2.123763
  C      0.666039    0.329422    1.412133
  C     -0.053996   -0.328583    0.435264
  C     -1.469788   -0.355531    0.676852
  C     -1.807562    0.281997    1.857894
  S     -0.406091    0.918585    2.676324
  H      0.410985   -0.756665   -0.446561
  H      2.818966   -0.385992   -0.339309
  H     -2.798200    0.375643    2.282536
  H      5.290463    1.644514    2.627065
  C      7.900023   -0.351379   -1.419352
  C      6.699931   -1.046272   -1.621899
  C      5.550833   -0.755508   -0.863984
  C      5.590225    0.245986    0.125303
  C      6.793974    0.947333    0.335404
  C      7.931412    0.646468   -0.435173
  O      6.655246   -2.017150   -2.569912
  O      9.086252    1.330308   -0.230461
  H      6.847365    1.734368    1.082835
  H      5.775489   -2.414390   -2.603814
  H      8.969484    1.986996    0.468143
  H      4.639193   -1.320270   -1.037890
  H     -8.467247    0.026151   -1.387142
  H      8.780321   -0.578620   -2.008718

 Multiplicity           Mult            ....    1
 Number of Electrons    NEL             ....  234
 Basis Dimension        Dim             .... 1100

ORBITAL ENERGIES
----------------

  NO   OCC          E(Eh)            E(eV)
   0   2.0000     -88.987192     -2421.4646
   1   2.0000     -88.984481     -2421.3908
   2   2.0000     -19.268981      -524.3356
   3   2.0000     -19.268503      -524.3226
   4   2.0000     -14.447864      -393.1464
   5   2.0000     -14.447670      -393.1411
   6   2.0000     -10.355220      -281.7799
   7   2.0000     -10.355068      -281.7757
   8   2.0000     -10.343319      -281.4560
   9   2.0000     -10.340586      -281.3816
  10   2.0000     -10.340245      -281.3724
  11   2.0000     -10.339442      -281.3505
  12   2.0000     -10.333969      -281.2016
  13   2.0000     -10.331205      -281.1264
  14   2.0000     -10.317431      -280.7516
  15   2.0000     -10.317333      -280.7489
  16   2.0000     -10.314084      -280.6605
  17   2.0000     -10.311355      -280.5862
  18   2.0000     -10.306201      -280.4460
  19   2.0000     -10.304165      -280.3906
  20   2.0000     -10.304163      -280.3905
  21   2.0000     -10.303645      -280.3764
  22   2.0000     -10.303615      -280.3756
  23   2.0000     -10.302995      -280.3588
  24   2.0000     -10.300404      -280.2883
  25   2.0000     -10.299856      -280.2733
  26   2.0000     -10.297865      -280.2191
  27   2.0000     -10.294727      -280.1338
  28   2.0000     -10.294667      -280.1321
  29   2.0000     -10.281590      -279.7763
  30   2.0000     -10.280907      -279.7577
  31   2.0000     -10.277574      -279.6670
  32   2.0000      -8.083581      -219.9654
  33   2.0000      -8.080939      -219.8935
  34   2.0000      -6.036880      -164.2719
  35   2.0000      -6.034214      -164.1993
  36   2.0000      -6.032659      -164.1570
  37   2.0000      -6.030714      -164.1041
  38   2.0000      -6.029992      -164.0844
  39   2.0000      -6.028107      -164.0331
  40   2.0000      -1.187923       -32.3250
  41   2.0000      -1.185925       -32.2707
  42   2.0000      -1.102908       -30.0116
  43   2.0000      -1.033015       -28.1098
  44   2.0000      -1.019007       -27.7286
  45   2.0000      -1.001987       -27.2655
  46   2.0000      -0.989778       -26.9332
  47   2.0000      -0.970526       -26.4094
  48   2.0000      -0.963111       -26.2076
  49   2.0000      -0.911353       -24.7992
  50   2.0000      -0.896456       -24.3938
  51   2.0000      -0.882968       -24.0268
  52   2.0000      -0.876867       -23.8608
  53   2.0000      -0.872188       -23.7334
  54   2.0000      -0.854121       -23.2418
  55   2.0000      -0.844683       -22.9850
  56   2.0000      -0.838071       -22.8051
  57   2.0000      -0.815093       -22.1798
  58   2.0000      -0.802306       -21.8319
  59   2.0000      -0.764895       -20.8139
  60   2.0000      -0.753345       -20.4996
  61   2.0000      -0.739918       -20.1342
  62   2.0000      -0.727547       -19.7976
  63   2.0000      -0.721134       -19.6231
  64   2.0000      -0.712390       -19.3851
  65   2.0000      -0.683829       -18.6079
  66   2.0000      -0.678535       -18.4639
  67   2.0000      -0.671342       -18.2681
  68   2.0000      -0.661670       -18.0049
  69   2.0000      -0.645986       -17.5782
  70   2.0000      -0.643145       -17.5009
  71   2.0000      -0.626361       -17.0441
  72   2.0000      -0.614463       -16.7204
  73   2.0000      -0.604082       -16.4379
  74   2.0000      -0.601180       -16.3589
  75   2.0000      -0.594949       -16.1894
  76   2.0000      -0.587847       -15.9961
  77   2.0000      -0.574130       -15.6229
  78   2.0000      -0.568656       -15.4739
  79   2.0000      -0.562502       -15.3065
  80   2.0000      -0.554977       -15.1017
  81   2.0000      -0.544710       -14.8223
  82   2.0000      -0.539221       -14.6730
  83   2.0000      -0.536126       -14.5887
  84   2.0000      -0.526840       -14.3360
  85   2.0000      -0.518747       -14.1158
  86   2.0000      -0.517545       -14.0831
  87   2.0000      -0.514226       -13.9928
  88   2.0000      -0.506006       -13.7691
  89   2.0000      -0.501552       -13.6479
  90   2.0000      -0.499777       -13.5996
  91   2.0000      -0.495811       -13.4917
  92   2.0000      -0.489225       -13.3125
  93   2.0000      -0.485288       -13.2053
  94   2.0000      -0.480095       -13.0641
  95   2.0000      -0.479228       -13.0405
  96   2.0000      -0.475452       -12.9377
  97   2.0000      -0.466894       -12.7048
  98   2.0000      -0.463379       -12.6092
  99   2.0000      -0.458307       -12.4712
 100   2.0000      -0.455143       -12.3851
 101   2.0000      -0.451922       -12.2974
 102   2.0000      -0.439796       -11.9675
 103   2.0000      -0.434134       -11.8134
 104   2.0000      -0.431156       -11.7323
 105   2.0000      -0.426075       -11.5941
 106   2.0000      -0.415717       -11.3122
 107   2.0000      -0.384735       -10.4692
 108   2.0000      -0.368290       -10.0217
 109   2.0000      -0.358900        -9.7662
 110   2.0000      -0.351137        -9.5549
 111   2.0000      -0.341677        -9.2975
 112   2.0000      -0.339621        -9.2416
 113   2.0000      -0.314799        -8.5661
 114   2.0000      -0.308650        -8.3988
 115   2.0000      -0.303814        -8.2672
 116   2.0000      -0.280720        -7.6388
 117   0.0000      -0.044212        -1.2031
 118   0.0000       0.004796         0.1305
 119   0.0000       0.028212         0.7677
 120   0.0000       0.035093         0.9549
 121   0.0000       0.042052         1.1443

MULLIKEN ATOMIC CHARGES
-----------------------
   0 C :   -0.068441
   1 C :   -0.281934
   2 C :    0.208523
   3 C :    0.191122
   4 C :   -0.254952
   5 C :   -0.072701
   6 N :   -0.316332
   7 C :    0.185888
   8 C :    0.185391
   9 N :   -0.245957
  10 C :   -0.258020
  11 C :   -0.081073
  12 C :   -0.162540
  13 C :   -0.000748
  14 H :    0.131958
  15 H :    0.128387
  16 H :    0.131076
  17 H :    0.132928
  18 H :    0.136541
  19 H :    0.133726
  20 S :    0.060259
  21 C :    0.051032
  22 C :   -0.287958
  23 C :    0.168853
  24 C :   -0.224022
  25 C :    0.077272
  26 C :   -0.288047
  27 C :    0.126797
  28 C :   -0.211526
  29 S :    0.059725
  30 H :    0.141378
  31 H :    0.130699
  32 H :    0.172991
  33 H :    0.149081
  34 C :   -0.332350
  35 C :    0.331675
  36 C :   -0.324632
  37 C :    0.069785
  38 C :   -0.335800
  39 C :    0.331508
  40 O :   -0.413978
  41 O :   -0.413287
  42 H :    0.103944
  43 H :    0.328290
  44 H :    0.329227
  45 H :    0.101475
  46 H :    0.133158
  47 H :    0.141604
Sum of atomic charges:   -0.0000000

LOEWDIN ATOMIC CHARGES
----------------------
   0 C :   -0.131211
   1 C :   -0.099513
   2 C :   -0.166515
   3 C :   -0.166978
   4 C :   -0.097084
   5 C :   -0.131447
   6 N :    0.206628
   7 C :   -0.122410
   8 C :   -0.164444
   9 N :    0.201328
  10 C :   -0.100617
  11 C :   -0.132152
  12 C :   -0.093721
  13 C :   -0.065245
  14 H :    0.151337
  15 H :    0.148955
  16 H :    0.153136
  17 H :    0.148416
  18 H :    0.152977
  19 H :    0.148438
  20 S :    0.710196
  21 C :   -0.353864
  22 C :   -0.122684
  23 C :   -0.160963
  24 C :   -0.347521
  25 C :   -0.357763
  26 C :   -0.124056
  27 C :   -0.163420
  28 C :   -0.332067
  29 S :    0.710404
  30 H :    0.145690
  31 H :    0.144463
  32 H :    0.137015
  33 H :    0.130350
  34 C :   -0.107273
  35 C :   -0.264854
  36 C :   -0.129105
  37 C :   -0.102025
  38 C :   -0.127499
  39 C :   -0.264862
  40 O :    0.084374
  41 O :    0.084608
  42 H :    0.140708
  43 H :    0.190825
  44 H :    0.191187
  45 H :    0.140192
  46 H :    0.153434
  47 H :    0.154633

  Mayer bond orders larger than 0.1
B(  0-C ,  1-C ) :   1.6109 B(  0-C ,  5-C ) :   1.1881 B(  0-C , 19-H ) :   0.9812
B(  1-C ,  2-C ) :   1.1790 B(  1-C , 18-H ) :   0.9736 B(  2-C ,  3-C ) :   1.1651
B(  2-C ,  6-N ) :   1.4054 B(  3-C ,  4-C ) :   1.1963 B(  3-C ,  9-N ) :   1.4070
B(  4-C ,  5-C ) :   1.6167 B(  4-C , 46-H ) :   0.9755 B(  5-C , 17-H ) :   0.9822
B(  6-N ,  7-C ) :   1.3575 B(  7-C ,  8-C ) :   1.1947 B(  7-C , 13-C ) :   1.1315
B(  8-C ,  9-N ) :   1.4251 B(  8-C , 10-C ) :   1.1951 B( 10-C , 11-C ) :   1.5943
B( 10-C , 16-H ) :   0.9816 B( 11-C , 12-C ) :   1.2281 B( 11-C , 15-H ) :   0.9885
B( 12-C , 13-C ) :   1.5702 B( 12-C , 14-H ) :   0.9579 B( 13-C , 27-C ) :   0.8981
B( 20-S , 21-C ) :   1.2832 B( 20-S , 24-C ) :   1.2814 B( 21-C , 22-C ) :   1.6555
B( 21-C , 25-C ) :   0.9091 B( 22-C , 23-C ) :   1.2530 B( 22-C , 31-H ) :   0.8943
B( 23-C , 24-C ) :   1.6311 B( 23-C , 37-C ) :   0.8946 B( 24-C , 33-H ) :   0.9328
B( 25-C , 26-C ) :   1.6668 B( 25-C , 29-S ) :   1.2756 B( 26-C , 27-C ) :   1.2566
B( 26-C , 30-H ) :   0.8915 B( 27-C , 28-C ) :   1.6337 B( 28-C , 29-S ) :   1.2996
B( 28-C , 32-H ) :   0.9185 B( 34-C , 35-C ) :   1.4147 B( 34-C , 39-C ) :   1.4037
B( 34-C , 47-H ) :   0.9755 B( 35-C , 36-C ) :   1.3688 B( 35-C , 40-O ) :   1.1233
B( 36-C , 37-C ) :   1.4396 B( 36-C , 45-H ) :   0.9038 B( 37-C , 38-C ) :   1.4254
B( 38-C , 39-C ) :   1.3891 B( 38-C , 42-H ) :   0.9033 B( 39-C , 41-O ) :   1.1266
B( 40-O , 43-H ) :   0.8790 B( 41-O , 44-H ) :   0.8781

Dispersion correction           -0.021402478
FINAL SINGLE POINT ENERGY     -2056.834191944195

DIPOLE MOMENT
-------------
                                X             Y             Z
Electronic contribution:     -0.13070       2.79443       8.21054
Nuclear contribution   :     -0.81607      -2.66245      -7.98594
                        -----------------------------------------
Total Dipole Moment    :     -0.94678       0.13197       0.22460
                        -----------------------------------------
Magnitude (a.u.)       :      0.98196
Magnitude (Debye)      :      2.49595

                             ****ORCA TERMINATED NORMALLY****
TOTAL RUN TIME: 0 days 0 hours 9 minutes 19 seconds 423 msec
