                         Program Version 4.0.0 -  RELEASE  -
|  1> #
|  2> !wB97X-D3 def2-TZVP def2/J RIJCOSX Grid5 FinalGrid6 TightSCF
|  3> %pal
|  4>  nprocs 24
|  5> end
|  6> %tddft
|  7>   Mode sTDDFT
|  8>   nroots 2
|  9>   Ethresh 10.0
| 10>   maxcore 5000
| 11>   triplets true
| 12> end
| 13> * xyz 0 1
| 14> C 7.80444037 2.65998737 -2.04593977
| 15> C 7.16307382 1.75555227 -1.20243140
| 16> C 7.93577819 0.82868166 -0.47892880
| 17> C 9.34674558 0.82549635 -0.66647518
| 18> C 9.99579448 1.74120290 -1.50866623
| 19> C 9.20305483 2.66224724 -2.18991746
| 20> C 7.63826639 -0.25900696 0.43889041
| 21> C 8.88368409 -0.88681099 0.72604953
| 22> N 9.89767317 -0.20482341 0.07595573
| 23> C 8.98981624 -2.03423008 1.52735441
| 24> C 7.80663570 -2.56956987 2.03389151
| 25> C 6.56861046 -1.96392276 1.77832252
| 26> C 6.45207884 -0.79160860 1.00892562
| 27> H 5.67037580 -2.39524247 2.21336797
| 28> H 10.87864274 -0.45485142 0.09740251
| 29> H 7.84248989 -3.46569413 2.64744156
| 30> H 6.07974309 1.76348220 -1.12616571
| 31> H 11.07541417 1.72502910 -1.63234063
| 32> H 9.67073676 3.38572077 -2.85245018
| 33> H 7.21329702 3.37836246 -2.60725189
| 34> N 0.61822106 -0.74796332 0.47114609
| 35> C 1.28928943 0.46025122 0.59592171
| 36> C 0.48149862 1.58713074 0.58636841
| 37> S -1.19438824 1.13341617 0.41693287
| 38> C -0.69213169 -0.57367604 0.36794211
| 39> C 2.73673494 0.45624416 0.72089767
| 40> S 3.64462241 -1.06555941 0.71161138
| 41> C 5.14003960 -0.14784875 0.86793626
| 42> C 4.83557011 1.20040952 0.93647411
| 43> N 3.50236167 1.53101319 0.85123010
| 44> H 0.81279552 2.61346454 0.67368899
| 45> H 5.57271332 1.98592814 1.08795215
| 46> C -6.91620356 1.16358889 0.99378996
| 47> C -7.51184117 2.40747482 1.19205931
| 48> C -6.91070726 3.56405150 0.69090126
| 49> C -5.69777138 3.47369575 0.00534365
| 50> C -5.09504428 2.23262637 -0.18861196
| 51> C -5.70489915 1.05821472 0.28619494
| 52> C -5.02014949 -0.24804120 0.08748782
| 53> C -5.75252152 -1.49389310 -0.16680377
| 54> N -5.15116542 -2.68204342 -0.16900016
| 55> C -3.78217358 -2.68485219 0.00310667
| 56> C -3.05531989 -1.44824834 0.12704698
| 57> N -3.69031686 -0.23461678 0.19208264
| 58> C -2.94700071 -3.80238246 0.02051668
| 59> S -1.28330263 -3.32594196 0.17989633
| 60> C -1.66573307 -1.62134143 0.22965131
| 61> C -7.20923988 -1.49289577 -0.48556084
| 62> C -8.03159826 -2.51269625 0.02179518
| 63> C -9.39151074 -2.54386058 -0.28197035
| 64> C -9.94717139 -1.56742237 -1.11054582
| 65> C -9.13404047 -0.56422220 -1.64225246
| 66> C -7.77580601 -0.52474365 -1.33395222
| 67> H -7.14721993 0.25017256 -1.76571347
| 68> H -9.55911373 0.18840202 -2.30127123
| 69> H -11.00746500 -1.59247487 -1.34822800
| 70> H -10.01919990 -3.33249447 0.12538977
| 71> H -7.59478439 -3.27354204 0.66355808
| 72> H -4.14751486 2.15868080 -0.71700983
| 73> H -5.22019580 4.37285895 -0.37569854
| 74> H -7.38081194 4.53216042 0.84282989
| 75> H -8.44647469 2.47517811 1.74279181
| 76> H -7.38174456 0.27227344 1.40665724
| 77> H 9.95262855 -2.49451702 1.73011692
| 78> H -3.23856541 -4.84186005 -0.06053417
| 79> *
| 80> $new_job
| 81> #
| 82> !wB97X-D3 def2-TZVP def2/J RIJCOSX Grid5 FinalGrid6 TightSCF
| 83> %pal
| 84>  nprocs 24
| 85> end
| 86> %elprop
| 87>    dipole     true
| 88>    quadrupole true
| 89> end
| 90> %tddft
| 91>   Mode sTDDFT
| 92>   nroots 2
| 93>   Ethresh 10.0
| 94>   maxcore 5000
| 95> end
| 96> * xyz 0 1
| 97> C 7.80444037 2.65998737 -2.04593977
| 98> C 7.16307382 1.75555227 -1.20243140
| 99> C 7.93577819 0.82868166 -0.47892880
|100> C 9.34674558 0.82549635 -0.66647518
|101> C 9.99579448 1.74120290 -1.50866623
|102> C 9.20305483 2.66224724 -2.18991746
|103> C 7.63826639 -0.25900696 0.43889041
|104> C 8.88368409 -0.88681099 0.72604953
|105> N 9.89767317 -0.20482341 0.07595573
|106> C 8.98981624 -2.03423008 1.52735441
|107> C 7.80663570 -2.56956987 2.03389151
|108> C 6.56861046 -1.96392276 1.77832252
|109> C 6.45207884 -0.79160860 1.00892562
|110> H 5.67037580 -2.39524247 2.21336797
|111> H 10.87864274 -0.45485142 0.09740251
|112> H 7.84248989 -3.46569413 2.64744156
|113> H 6.07974309 1.76348220 -1.12616571
|114> H 11.07541417 1.72502910 -1.63234063
|115> H 9.67073676 3.38572077 -2.85245018
|116> H 7.21329702 3.37836246 -2.60725189
|117> N 0.61822106 -0.74796332 0.47114609
|118> C 1.28928943 0.46025122 0.59592171
|119> C 0.48149862 1.58713074 0.58636841
|120> S -1.19438824 1.13341617 0.41693287
|121> C -0.69213169 -0.57367604 0.36794211
|122> C 2.73673494 0.45624416 0.72089767
|123> S 3.64462241 -1.06555941 0.71161138
|124> C 5.14003960 -0.14784875 0.86793626
|125> C 4.83557011 1.20040952 0.93647411
|126> N 3.50236167 1.53101319 0.85123010
|127> H 0.81279552 2.61346454 0.67368899
|128> H 5.57271332 1.98592814 1.08795215
|129> C -6.91620356 1.16358889 0.99378996
|130> C -7.51184117 2.40747482 1.19205931
|131> C -6.91070726 3.56405150 0.69090126
|132> C -5.69777138 3.47369575 0.00534365
|133> C -5.09504428 2.23262637 -0.18861196
|134> C -5.70489915 1.05821472 0.28619494
|135> C -5.02014949 -0.24804120 0.08748782
|136> C -5.75252152 -1.49389310 -0.16680377
|137> N -5.15116542 -2.68204342 -0.16900016
|138> C -3.78217358 -2.68485219 0.00310667
|139> C -3.05531989 -1.44824834 0.12704698
|140> N -3.69031686 -0.23461678 0.19208264
|141> C -2.94700071 -3.80238246 0.02051668
|142> S -1.28330263 -3.32594196 0.17989633
|143> C -1.66573307 -1.62134143 0.22965131
|144> C -7.20923988 -1.49289577 -0.48556084
|145> C -8.03159826 -2.51269625 0.02179518
|146> C -9.39151074 -2.54386058 -0.28197035
|147> C -9.94717139 -1.56742237 -1.11054582
|148> C -9.13404047 -0.56422220 -1.64225246
|149> C -7.77580601 -0.52474365 -1.33395222
|150> H -7.14721993 0.25017256 -1.76571347
|151> H -9.55911373 0.18840202 -2.30127123
|152> H -11.00746500 -1.59247487 -1.34822800
|153> H -10.01919990 -3.33249447 0.12538977
|154> H -7.59478439 -3.27354204 0.66355808
|155> H -4.14751486 2.15868080 -0.71700983
|156> H -5.22019580 4.37285895 -0.37569854
|157> H -7.38081194 4.53216042 0.84282989
|158> H -8.44647469 2.47517811 1.74279181
|159> H -7.38174456 0.27227344 1.40665724
|160> H 9.95262855 -2.49451702 1.73011692
|161> H -3.23856541 -4.84186005 -0.06053417
|162> *
|163>
|164>                          ****END OF INPUT****
 Total Charge           Charge          ....    0
 Multiplicity           Mult            ....    1
 Number of Electrons    NEL             ....  320
Dispersion correction           -0.033816475
FINAL SINGLE POINT ENERGY     -2852.951707085914

CARTESIAN COORDINATES (ANGSTROEM)
---------------------------------
  C      7.804440    2.659987   -2.045940
  C      7.163074    1.755552   -1.202431
  C      7.935778    0.828682   -0.478929
  C      9.346746    0.825496   -0.666475
  C      9.995794    1.741203   -1.508666
  C      9.203055    2.662247   -2.189917
  C      7.638266   -0.259007    0.438890
  C      8.883684   -0.886811    0.726050
  N      9.897673   -0.204823    0.075956
  C      8.989816   -2.034230    1.527354
  C      7.806636   -2.569570    2.033892
  C      6.568610   -1.963923    1.778323
  C      6.452079   -0.791609    1.008926
  H      5.670376   -2.395242    2.213368
  H     10.878643   -0.454851    0.097403
  H      7.842490   -3.465694    2.647442
  H      6.079743    1.763482   -1.126166
  H     11.075414    1.725029   -1.632341
  H      9.670737    3.385721   -2.852450
  H      7.213297    3.378362   -2.607252
  N      0.618221   -0.747963    0.471146
  C      1.289289    0.460251    0.595922
  C      0.481499    1.587131    0.586368
  S     -1.194388    1.133416    0.416933
  C     -0.692132   -0.573676    0.367942
  C      2.736735    0.456244    0.720898
  S      3.644622   -1.065559    0.711611
  C      5.140040   -0.147849    0.867936
  C      4.835570    1.200410    0.936474
  N      3.502362    1.531013    0.851230
  H      0.812796    2.613465    0.673689
  H      5.572713    1.985928    1.087952
  C     -6.916204    1.163589    0.993790
  C     -7.511841    2.407475    1.192059
  C     -6.910707    3.564051    0.690901
  C     -5.697771    3.473696    0.005344
  C     -5.095044    2.232626   -0.188612
  C     -5.704899    1.058215    0.286195
  C     -5.020149   -0.248041    0.087488
  C     -5.752522   -1.493893   -0.166804
  N     -5.151165   -2.682043   -0.169000
  C     -3.782174   -2.684852    0.003107
  C     -3.055320   -1.448248    0.127047
  N     -3.690317   -0.234617    0.192083
  C     -2.947001   -3.802382    0.020517
  S     -1.283303   -3.325942    0.179896
  C     -1.665733   -1.621341    0.229651
  C     -7.209240   -1.492896   -0.485561
  C     -8.031598   -2.512696    0.021795
  C     -9.391511   -2.543861   -0.281970
  C     -9.947171   -1.567422   -1.110546
  C     -9.134040   -0.564222   -1.642252
  C     -7.775806   -0.524744   -1.333952
  H     -7.147220    0.250173   -1.765713
  H     -9.559114    0.188402   -2.301271
  H    -11.007465   -1.592475   -1.348228
  H    -10.019200   -3.332494    0.125390
  H     -7.594784   -3.273542    0.663558
  H     -4.147515    2.158681   -0.717010
  H     -5.220196    4.372859   -0.375699
  H     -7.380812    4.532160    0.842830
  H     -8.446475    2.475178    1.742792
  H     -7.381745    0.272273    1.406657
  H      9.952629   -2.494517    1.730117
  H     -3.238565   -4.841860   -0.060534

 Multiplicity           Mult            ....    1
 Number of Electrons    NEL             ....  320
 Basis Dimension        Dim             .... 1508

ORBITAL ENERGIES
----------------

  NO   OCC          E(Eh)            E(eV)
   0   2.0000     -89.010689     -2422.1040
   1   2.0000     -88.990930     -2421.5663
   2   2.0000     -88.980740     -2421.2890
   3   2.0000     -14.466114      -393.6430
   4   2.0000     -14.454568      -393.3288
   5   2.0000     -14.453581      -393.3019
   6   2.0000     -14.434313      -392.7776
   7   2.0000     -14.423626      -392.4868
   8   2.0000     -10.368890      -282.1519
   9   2.0000     -10.360736      -281.9300
  10   2.0000     -10.357256      -281.8353
  11   2.0000     -10.352666      -281.7104
  12   2.0000     -10.339290      -281.3464
  13   2.0000     -10.337228      -281.2903
  14   2.0000     -10.336358      -281.2666
  15   2.0000     -10.331512      -281.1347
  16   2.0000     -10.330502      -281.1073
  17   2.0000     -10.326673      -281.0031
  18   2.0000     -10.323787      -280.9245
  19   2.0000     -10.319196      -280.7996
  20   2.0000     -10.316781      -280.7339
  21   2.0000     -10.308262      -280.5021
  22   2.0000     -10.308084      -280.4972
  23   2.0000     -10.307588      -280.4837
  24   2.0000     -10.306839      -280.4633
  25   2.0000     -10.296883      -280.1924
  26   2.0000     -10.295747      -280.1615
  27   2.0000     -10.294936      -280.1394
  28   2.0000     -10.294744      -280.1342
  29   2.0000     -10.293891      -280.1110
  30   2.0000     -10.293667      -280.1049
  31   2.0000     -10.292866      -280.0831
  32   2.0000     -10.292647      -280.0772
  33   2.0000     -10.292559      -280.0748
  34   2.0000     -10.292216      -280.0654
  35   2.0000     -10.291919      -280.0574
  36   2.0000     -10.287778      -279.9447
  37   2.0000     -10.287222      -279.9295
  38   2.0000     -10.286216      -279.9022
  39   2.0000     -10.284563      -279.8572
  40   2.0000     -10.282717      -279.8070
  41   2.0000     -10.281498      -279.7738
  42   2.0000     -10.278944      -279.7043
  43   2.0000     -10.273090      -279.5450
  44   2.0000      -8.105479      -220.5613
  45   2.0000      -8.086473      -220.0441
  46   2.0000      -8.076918      -219.7841
  47   2.0000      -6.058522      -164.8608
  48   2.0000      -6.054270      -164.7451
  49   2.0000      -6.053422      -164.7220
  50   2.0000      -6.039782      -164.3508
  51   2.0000      -6.035433      -164.2325
  52   2.0000      -6.033685      -164.1849
  53   2.0000      -6.029998      -164.0846
  54   2.0000      -6.025970      -163.9750
  55   2.0000      -6.024227      -163.9275
  56   2.0000      -1.110341       -30.2139
  57   2.0000      -1.102656       -30.0048
  58   2.0000      -1.087057       -29.5803
  59   2.0000      -1.066514       -29.0213
  60   2.0000      -1.041025       -28.3277
  61   2.0000      -1.012113       -27.5410
  62   2.0000      -0.987172       -26.8623
  63   2.0000      -0.983199       -26.7542
  64   2.0000      -0.974439       -26.5158
  65   2.0000      -0.963364       -26.2145
  66   2.0000      -0.919217       -25.0132
  67   2.0000      -0.915919       -24.9234
  68   2.0000      -0.914680       -24.8897
  69   2.0000      -0.906082       -24.6558
  70   2.0000      -0.896810       -24.4034
  71   2.0000      -0.885699       -24.1011
  72   2.0000      -0.875003       -23.8100
  73   2.0000      -0.871326       -23.7100
  74   2.0000      -0.868008       -23.6197
  75   2.0000      -0.859583       -23.3904
  76   2.0000      -0.852412       -23.1953
  77   2.0000      -0.841442       -22.8968
  78   2.0000      -0.836481       -22.7618
  79   2.0000      -0.814532       -22.1646
  80   2.0000      -0.790270       -21.5043
  81   2.0000      -0.767352       -20.8807
  82   2.0000      -0.759066       -20.6552
  83   2.0000      -0.737054       -20.0563
  84   2.0000      -0.729922       -19.8622
  85   2.0000      -0.724498       -19.7146
  86   2.0000      -0.722585       -19.6625
  87   2.0000      -0.716638       -19.5007
  88   2.0000      -0.712265       -19.3817
  89   2.0000      -0.708364       -19.2756
  90   2.0000      -0.704203       -19.1624
  91   2.0000      -0.697453       -18.9787
  92   2.0000      -0.672398       -18.2969
  93   2.0000      -0.659650       -17.9500
  94   2.0000      -0.646436       -17.5904
  95   2.0000      -0.640357       -17.4250
  96   2.0000      -0.639208       -17.3937
  97   2.0000      -0.631441       -17.1824
  98   2.0000      -0.625370       -17.0172
  99   2.0000      -0.616949       -16.7880
 100   2.0000      -0.609628       -16.5888
 101   2.0000      -0.591405       -16.0930
 102   2.0000      -0.586422       -15.9573
 103   2.0000      -0.581753       -15.8303
 104   2.0000      -0.574059       -15.6209
 105   2.0000      -0.569246       -15.4900
 106   2.0000      -0.562412       -15.3040
 107   2.0000      -0.559377       -15.2214
 108   2.0000      -0.555637       -15.1197
 109   2.0000      -0.555466       -15.1150
 110   2.0000      -0.553133       -15.0515
 111   2.0000      -0.551809       -15.0155
 112   2.0000      -0.543951       -14.8017
 113   2.0000      -0.535997       -14.5852
 114   2.0000      -0.533318       -14.5123
 115   2.0000      -0.531315       -14.4578
 116   2.0000      -0.529891       -14.4191
 117   2.0000      -0.528451       -14.3799
 118   2.0000      -0.526711       -14.3325
 119   2.0000      -0.522910       -14.2291
 120   2.0000      -0.520528       -14.1643
 121   2.0000      -0.516930       -14.0664
 122   2.0000      -0.511859       -13.9284
 123   2.0000      -0.502765       -13.6809
 124   2.0000      -0.496498       -13.5104
 125   2.0000      -0.492793       -13.4096
 126   2.0000      -0.485849       -13.2206
 127   2.0000      -0.474996       -12.9253
 128   2.0000      -0.467288       -12.7155
 129   2.0000      -0.466799       -12.7022
 130   2.0000      -0.465488       -12.6666
 131   2.0000      -0.464071       -12.6280
 132   2.0000      -0.460674       -12.5356
 133   2.0000      -0.454855       -12.3772
 134   2.0000      -0.451737       -12.2924
 135   2.0000      -0.448702       -12.2098
 136   2.0000      -0.446704       -12.1554
 137   2.0000      -0.445393       -12.1197
 138   2.0000      -0.443588       -12.0707
 139   2.0000      -0.440076       -11.9751
 140   2.0000      -0.434976       -11.8363
 141   2.0000      -0.430106       -11.7038
 142   2.0000      -0.420068       -11.4306
 143   2.0000      -0.392023       -10.6675
 144   2.0000      -0.382678       -10.4132
 145   2.0000      -0.379064       -10.3148
 146   2.0000      -0.376570       -10.2470
 147   2.0000      -0.372259       -10.1297
 148   2.0000      -0.368606       -10.0303
 149   2.0000      -0.366374        -9.9696
 150   2.0000      -0.362405        -9.8615
 151   2.0000      -0.354355        -9.6425
 152   2.0000      -0.352820        -9.6007
 153   2.0000      -0.344924        -9.3859
 154   2.0000      -0.343931        -9.3588
 155   2.0000      -0.316154        -8.6030
 156   2.0000      -0.315070        -8.5735
 157   2.0000      -0.296338        -8.0638
 158   2.0000      -0.289852        -7.8873
 159   2.0000      -0.272218        -7.4074
 160   0.0000      -0.047277        -1.2865
 161   0.0000       0.001947         0.0530
 162   0.0000       0.011183         0.3043
 163   0.0000       0.027672         0.7530
 164   0.0000       0.036862         1.0031

MULLIKEN ATOMIC CHARGES
-----------------------
   0 C :   -0.157181
   1 C :   -0.218883
   2 C :   -0.045822
   3 C :    0.163622
   4 C :   -0.224428
   5 C :   -0.090566
   6 C :   -0.008706
   7 C :    0.181749
   8 N :   -0.303271
   9 C :   -0.244861
  10 C :   -0.079528
  11 C :   -0.280051
  12 C :    0.204031
  13 H :    0.131397
  14 H :    0.235755
  15 H :    0.122567
  16 H :    0.208839
  17 H :    0.113698
  18 H :    0.121782
  19 H :    0.119810
  20 N :   -0.344221
  21 C :    0.107111
  22 C :   -0.196170
  23 S :    0.089077
  24 C :    0.313148
  25 C :    0.112260
  26 S :    0.058907
  27 C :    0.027873
  28 C :   -0.213274
  29 N :   -0.277380
  30 H :    0.179853
  31 H :    0.186597
  32 C :   -0.208099
  33 C :   -0.140513
  34 C :   -0.104420
  35 C :   -0.139341
  36 C :   -0.197425
  37 C :    0.011767
  38 C :    0.264930
  39 C :    0.251003
  40 N :   -0.267961
  41 C :    0.029635
  42 C :    0.321178
  43 N :   -0.348831
  44 C :   -0.205801
  45 S :    0.142770
  46 C :   -0.312209
  47 C :    0.041171
  48 C :   -0.203171
  49 C :   -0.135875
  50 C :   -0.102794
  51 C :   -0.140461
  52 C :   -0.206138
  53 H :    0.159760
  54 H :    0.126092
  55 H :    0.127905
  56 H :    0.126164
  57 H :    0.135409
  58 H :    0.143720
  59 H :    0.127185
  60 H :    0.128783
  61 H :    0.126017
  62 H :    0.163019
  63 H :    0.115216
  64 H :    0.177580
Sum of atomic charges:   -0.0000000

LOEWDIN ATOMIC CHARGES
----------------------
   0 C :   -0.158825
   1 C :   -0.104574
   2 C :   -0.081048
   3 C :   -0.145580
   4 C :   -0.133536
   5 C :   -0.142745
   6 C :   -0.041619
   7 C :   -0.144064
   8 N :    0.199844
   9 C :   -0.130876
  10 C :   -0.141344
  11 C :   -0.125551
  12 C :   -0.109634
  13 H :    0.146249
  14 H :    0.192741
  15 H :    0.146324
  16 H :    0.154602
  17 H :    0.142774
  18 H :    0.144360
  19 H :    0.143908
  20 N :    0.124675
  21 C :   -0.289255
  22 C :   -0.342176
  23 S :    0.726786
  24 C :   -0.411599
  25 C :   -0.392186
  26 S :    0.744882
  27 C :   -0.324440
  28 C :   -0.233997
  29 N :    0.106141
  30 H :    0.139523
  31 H :    0.147354
  32 C :   -0.089044
  33 C :   -0.137467
  34 C :   -0.132231
  35 C :   -0.137672
  36 C :   -0.091641
  37 C :   -0.118128
  38 C :   -0.112760
  39 C :   -0.120978
  40 N :    0.203914
  41 C :   -0.243864
  42 C :   -0.207029
  43 N :    0.191768
  44 C :   -0.335269
  45 S :    0.796407
  46 C :   -0.339533
  47 C :   -0.118631
  48 C :   -0.092927
  49 C :   -0.138615
  50 C :   -0.134248
  51 C :   -0.138102
  52 C :   -0.091394
  53 H :    0.157684
  54 H :    0.146960
  55 H :    0.145481
  56 H :    0.146312
  57 H :    0.153742
  58 H :    0.152291
  59 H :    0.146786
  60 H :    0.145838
  61 H :    0.147181
  62 H :    0.158599
  63 H :    0.143340
  64 H :    0.136113

  Mayer bond orders larger than 0.1
B(  0-C ,  1-C ) :   1.5343 B(  0-C ,  5-C ) :   1.3609 B(  0-C , 19-H ) :   0.9834
B(  1-C ,  2-C ) :   1.2864 B(  1-C , 16-H ) :   0.9185 B(  2-C ,  3-C ) :   1.3820
B(  2-C ,  6-C ) :   1.0558 B(  3-C ,  4-C ) :   1.3107 B(  3-C ,  8-N ) :   1.1203
B(  4-C ,  5-C ) :   1.4844 B(  4-C , 17-H ) :   0.9757 B(  5-C , 18-H ) :   0.9806
B(  6-C ,  7-C ) :   1.3308 B(  6-C , 12-C ) :   1.2216 B(  7-C ,  8-N ) :   1.1497
B(  7-C ,  9-C ) :   1.2828 B(  8-N , 14-H ) :   0.9132 B(  9-C , 10-C ) :   1.4686
B(  9-C , 63-H ) :   0.9777 B( 10-C , 11-C ) :   1.4029 B( 10-C , 15-H ) :   0.9831
B( 11-C , 12-C ) :   1.4366 B( 11-C , 13-H ) :   0.9598 B( 12-C , 27-C ) :   0.8479
B( 20-N , 21-C ) :   1.2189 B( 20-N , 24-C ) :   1.6574 B( 21-C , 22-C ) :   1.6905
B( 21-C , 25-C ) :   0.9888 B( 22-C , 23-S ) :   1.2903 B( 22-C , 30-H ) :   0.9148
B( 23-S , 24-C ) :   1.2468 B( 24-C , 46-C ) :   0.9081 B( 25-C , 26-S ) :   1.3332
B( 25-C , 29-N ) :   1.6254 B( 26-S , 27-C ) :   1.2681 B( 27-C , 28-C ) :   1.5798
B( 28-C , 29-N ) :   1.3171 B( 28-C , 31-H ) :   0.9748 B( 32-C , 33-C ) :   1.4585
B( 32-C , 37-C ) :   1.3339 B( 32-C , 62-H ) :   0.9681 B( 33-C , 34-C ) :   1.3814
B( 33-C , 61-H ) :   0.9858 B( 34-C , 35-C ) :   1.3903 B( 34-C , 60-H ) :   0.9808
B( 35-C , 36-C ) :   1.4488 B( 35-C , 59-H ) :   0.9850 B( 36-C , 37-C ) :   1.3970
B( 36-C , 58-H ) :   0.9626 B( 37-C , 38-C ) :   0.8762 B( 38-C , 39-C ) :   1.0917
B( 38-C , 43-N ) :   1.6675 B( 39-C , 40-N ) :   1.6216 B( 39-C , 47-C ) :   0.9046
B( 40-N , 41-C ) :   1.2759 B( 41-C , 42-C ) :   1.1717 B( 41-C , 44-C ) :   1.5607
B( 42-C , 43-N ) :   1.1501 B( 42-C , 46-C ) :   1.2685 B( 44-C , 45-S ) :   1.3256
B( 44-C , 64-H ) :   0.9166 B( 45-S , 46-C ) :   1.4038 B( 47-C , 48-C ) :   1.4082
B( 47-C , 52-C ) :   1.3343 B( 48-C , 49-C ) :   1.4347 B( 48-C , 57-H ) :   0.9728
B( 49-C , 50-C ) :   1.3912 B( 49-C , 56-H ) :   0.9856 B( 50-C , 51-C ) :   1.3824
B( 50-C , 55-H ) :   0.9799 B( 51-C , 52-C ) :   1.4559 B( 51-C , 54-H ) :   0.9849
B( 52-C , 53-H ) :   0.9693

Dispersion correction           -0.033816475
FINAL SINGLE POINT ENERGY     -2852.951707023909

DIPOLE MOMENT
-------------
                                X             Y             Z
Electronic contribution:      8.68174     -11.72259       4.05815
Nuclear contribution   :     -9.27707      11.63082      -4.14042
                        -----------------------------------------
Total Dipole Moment    :     -0.59533      -0.09177      -0.08228
                        -----------------------------------------
Magnitude (a.u.)       :      0.60796
Magnitude (Debye)      :      1.54531

                             ****ORCA TERMINATED NORMALLY****
TOTAL RUN TIME: 0 days 0 hours 25 minutes 24 seconds 941 msec
