                         Program Version 4.0.0 -  RELEASE  -
|  1> #
|  2> !wB97X-D3 def2-TZVP def2/J RIJCOSX Grid5 FinalGrid6 TightSCF
|  3> %pal
|  4>  nprocs 24
|  5> end
|  6> %tddft
|  7>   Mode sTDDFT
|  8>   nroots 2
|  9>   Ethresh 10.0
| 10>   maxcore 5000
| 11>   triplets true
| 12> end
| 13> * xyz 0 1
| 14> C -5.05113750 -2.12851028 1.15594908
| 15> C -4.08569805 -1.25951533 0.65258292
| 16> C -4.45674720 0.05616361 0.31918979
| 17> C -5.80204364 0.46206237 0.54571337
| 18> C -6.77827487 -0.41400547 1.04433224
| 19> C -6.38299237 -1.71680626 1.33941463
| 20> C -3.75067283 1.22528856 -0.17911207
| 21> C -4.69987105 2.28683772 -0.18950326
| 22> N -5.92908326 1.80201506 0.22209356
| 23> C -4.36467909 3.60275750 -0.54434515
| 24> C -3.03489673 3.85428079 -0.87791727
| 25> C -2.08289013 2.82541282 -0.88913384
| 26> C -2.41367706 1.49491187 -0.57293089
| 27> H -1.06109448 3.05497362 -1.18139028
| 28> H -6.77236220 2.35361119 0.32182207
| 29> H -2.72998694 4.86233637 -1.14534953
| 30> H -3.06009727 -1.59873331 0.54023136
| 31> H -7.80159598 -0.08468840 1.20379940
| 32> H -7.11145599 -2.42286219 1.72907242
| 33> H -4.77095439 -3.14577111 1.41517059
| 34> N 3.03153119 -0.65559615 -0.28489485
| 35> C 2.01876242 -1.45466114 -0.79357983
| 36> C 2.41805206 -2.71892787 -1.20107595
| 37> S 4.12578918 -2.92507332 -0.94195550
| 38> C 4.20245911 -1.27352483 -0.29054565
| 39> C 0.66544032 -0.92971591 -0.85919503
| 40> S 0.29735917 0.70928281 -0.29526611
| 41> C -1.39474169 0.44617979 -0.70756998
| 42> C -1.53512545 -0.82078415 -1.24647733
| 43> N -0.39081578 -1.58121210 -1.32553700
| 44> H 1.78482567 -3.48813511 -1.62304491
| 45> H -2.47009326 -1.21965020 -1.63359313
| 46> N 6.94465593 -2.65918763 -0.28242638
| 47> C 6.68276220 -1.41351153 0.14673771
| 48> C 7.90593376 -0.83825547 0.61125461
| 49> N 8.87863400 -1.75551717 0.44976065
| 50> O 8.27284019 -2.83866408 -0.08855662
| 51> C 7.93342272 0.48933709 1.12942597
| 52> C 6.73778538 1.17459170 1.15717915
| 53> C 5.51640467 0.60438765 0.69494148
| 54> C 5.44717583 -0.68585461 0.18290564
| 55> H 4.60788759 1.19836487 0.74449147
| 56> H 6.71262996 2.19002691 1.54446150
| 57> H -5.10805082 4.39480649 -0.54307462
| 58> H 8.85448667 0.94103481 1.48644557
| 59> *
| 60> $new_job
| 61> #
| 62> !wB97X-D3 def2-TZVP def2/J RIJCOSX Grid5 FinalGrid6 TightSCF
| 63> %pal
| 64>  nprocs 24
| 65> end
| 66> %elprop
| 67>    dipole     true
| 68>    quadrupole true
| 69> end
| 70> %tddft
| 71>   Mode sTDDFT
| 72>   nroots 2
| 73>   Ethresh 10.0
| 74>   maxcore 5000
| 75> end
| 76> * xyz 0 1
| 77> C -5.05113750 -2.12851028 1.15594908
| 78> C -4.08569805 -1.25951533 0.65258292
| 79> C -4.45674720 0.05616361 0.31918979
| 80> C -5.80204364 0.46206237 0.54571337
| 81> C -6.77827487 -0.41400547 1.04433224
| 82> C -6.38299237 -1.71680626 1.33941463
| 83> C -3.75067283 1.22528856 -0.17911207
| 84> C -4.69987105 2.28683772 -0.18950326
| 85> N -5.92908326 1.80201506 0.22209356
| 86> C -4.36467909 3.60275750 -0.54434515
| 87> C -3.03489673 3.85428079 -0.87791727
| 88> C -2.08289013 2.82541282 -0.88913384
| 89> C -2.41367706 1.49491187 -0.57293089
| 90> H -1.06109448 3.05497362 -1.18139028
| 91> H -6.77236220 2.35361119 0.32182207
| 92> H -2.72998694 4.86233637 -1.14534953
| 93> H -3.06009727 -1.59873331 0.54023136
| 94> H -7.80159598 -0.08468840 1.20379940
| 95> H -7.11145599 -2.42286219 1.72907242
| 96> H -4.77095439 -3.14577111 1.41517059
| 97> N 3.03153119 -0.65559615 -0.28489485
| 98> C 2.01876242 -1.45466114 -0.79357983
| 99> C 2.41805206 -2.71892787 -1.20107595
|100> S 4.12578918 -2.92507332 -0.94195550
|101> C 4.20245911 -1.27352483 -0.29054565
|102> C 0.66544032 -0.92971591 -0.85919503
|103> S 0.29735917 0.70928281 -0.29526611
|104> C -1.39474169 0.44617979 -0.70756998
|105> C -1.53512545 -0.82078415 -1.24647733
|106> N -0.39081578 -1.58121210 -1.32553700
|107> H 1.78482567 -3.48813511 -1.62304491
|108> H -2.47009326 -1.21965020 -1.63359313
|109> N 6.94465593 -2.65918763 -0.28242638
|110> C 6.68276220 -1.41351153 0.14673771
|111> C 7.90593376 -0.83825547 0.61125461
|112> N 8.87863400 -1.75551717 0.44976065
|113> O 8.27284019 -2.83866408 -0.08855662
|114> C 7.93342272 0.48933709 1.12942597
|115> C 6.73778538 1.17459170 1.15717915
|116> C 5.51640467 0.60438765 0.69494148
|117> C 5.44717583 -0.68585461 0.18290564
|118> H 4.60788759 1.19836487 0.74449147
|119> H 6.71262996 2.19002691 1.54446150
|120> H -5.10805082 4.39480649 -0.54307462
|121> H 8.85448667 0.94103481 1.48644557
|122> *
|123>
|124>                          ****END OF INPUT****
 Total Charge           Charge          ....    0
 Multiplicity           Mult            ....    1
 Number of Electrons    NEL             ....  232
Dispersion correction           -0.020726294
FINAL SINGLE POINT ENERGY     -2067.779837860300

CARTESIAN COORDINATES (ANGSTROEM)
---------------------------------
  C     -5.051138   -2.128510    1.155949
  C     -4.085698   -1.259515    0.652583
  C     -4.456747    0.056164    0.319190
  C     -5.802044    0.462062    0.545713
  C     -6.778275   -0.414005    1.044332
  C     -6.382992   -1.716806    1.339415
  C     -3.750673    1.225289   -0.179112
  C     -4.699871    2.286838   -0.189503
  N     -5.929083    1.802015    0.222094
  C     -4.364679    3.602757   -0.544345
  C     -3.034897    3.854281   -0.877917
  C     -2.082890    2.825413   -0.889134
  C     -2.413677    1.494912   -0.572931
  H     -1.061094    3.054974   -1.181390
  H     -6.772362    2.353611    0.321822
  H     -2.729987    4.862336   -1.145350
  H     -3.060097   -1.598733    0.540231
  H     -7.801596   -0.084688    1.203799
  H     -7.111456   -2.422862    1.729072
  H     -4.770954   -3.145771    1.415171
  N      3.031531   -0.655596   -0.284895
  C      2.018762   -1.454661   -0.793580
  C      2.418052   -2.718928   -1.201076
  S      4.125789   -2.925073   -0.941955
  C      4.202459   -1.273525   -0.290546
  C      0.665440   -0.929716   -0.859195
  S      0.297359    0.709283   -0.295266
  C     -1.394742    0.446180   -0.707570
  C     -1.535125   -0.820784   -1.246477
  N     -0.390816   -1.581212   -1.325537
  H      1.784826   -3.488135   -1.623045
  H     -2.470093   -1.219650   -1.633593
  N      6.944656   -2.659188   -0.282426
  C      6.682762   -1.413512    0.146738
  C      7.905934   -0.838255    0.611255
  N      8.878634   -1.755517    0.449761
  O      8.272840   -2.838664   -0.088557
  C      7.933423    0.489337    1.129426
  C      6.737785    1.174592    1.157179
  C      5.516405    0.604388    0.694941
  C      5.447176   -0.685855    0.182906
  H      4.607888    1.198365    0.744491
  H      6.712630    2.190027    1.544461
  H     -5.108051    4.394806   -0.543075
  H      8.854487    0.941035    1.486446

 Multiplicity           Mult            ....    1
 Number of Electrons    NEL             ....  232
 Basis Dimension        Dim             .... 1082

ORBITAL ENERGIES
----------------

  NO   OCC          E(Eh)            E(eV)
   0   2.0000     -89.002159     -2421.8719
   1   2.0000     -88.988268     -2421.4939
   2   2.0000     -19.387311      -527.5556
   3   2.0000     -14.513492      -394.9322
   4   2.0000     -14.512437      -394.9035
   5   2.0000     -14.470125      -393.7521
   6   2.0000     -14.445865      -393.0920
   7   2.0000     -14.431179      -392.6923
   8   2.0000     -10.375195      -282.3234
   9   2.0000     -10.360118      -281.9131
  10   2.0000     -10.353290      -281.7273
  11   2.0000     -10.352004      -281.6923
  12   2.0000     -10.343002      -281.4474
  13   2.0000     -10.341028      -281.3937
  14   2.0000     -10.331040      -281.1219
  15   2.0000     -10.329019      -281.0669
  16   2.0000     -10.327833      -281.0346
  17   2.0000     -10.327642      -281.0294
  18   2.0000     -10.326329      -280.9937
  19   2.0000     -10.325655      -280.9754
  20   2.0000     -10.324400      -280.9412
  21   2.0000     -10.313978      -280.6576
  22   2.0000     -10.313082      -280.6332
  23   2.0000     -10.297329      -280.2046
  24   2.0000     -10.291790      -280.0539
  25   2.0000     -10.291786      -280.0537
  26   2.0000     -10.290715      -280.0246
  27   2.0000     -10.288128      -279.9542
  28   2.0000     -10.286274      -279.9037
  29   2.0000     -10.285449      -279.8813
  30   2.0000     -10.284028      -279.8426
  31   2.0000     -10.276761      -279.6449
  32   2.0000      -8.097935      -220.3560
  33   2.0000      -8.084464      -219.9895
  34   2.0000      -6.051104      -164.6589
  35   2.0000      -6.046823      -164.5424
  36   2.0000      -6.045335      -164.5019
  37   2.0000      -6.037545      -164.2900
  38   2.0000      -6.033551      -164.1813
  39   2.0000      -6.031768      -164.1328
  40   2.0000      -1.332886       -36.2697
  41   2.0000      -1.106724       -30.1155
  42   2.0000      -1.098260       -29.8852
  43   2.0000      -1.074740       -29.2451
  44   2.0000      -1.042742       -28.3744
  45   2.0000      -1.035903       -28.1883
  46   2.0000      -0.979437       -26.6518
  47   2.0000      -0.967225       -26.3195
  48   2.0000      -0.958270       -26.0759
  49   2.0000      -0.930558       -25.3218
  50   2.0000      -0.925414       -25.1818
  51   2.0000      -0.919059       -25.0089
  52   2.0000      -0.901494       -24.5309
  53   2.0000      -0.889401       -24.2018
  54   2.0000      -0.869821       -23.6690
  55   2.0000      -0.850584       -23.1456
  56   2.0000      -0.841421       -22.8962
  57   2.0000      -0.828525       -22.5453
  58   2.0000      -0.808186       -21.9919
  59   2.0000      -0.774930       -21.0869
  60   2.0000      -0.768750       -20.9188
  61   2.0000      -0.751135       -20.4394
  62   2.0000      -0.731409       -19.9027
  63   2.0000      -0.721483       -19.6325
  64   2.0000      -0.715821       -19.4785
  65   2.0000      -0.710620       -19.3369
  66   2.0000      -0.686225       -18.6731
  67   2.0000      -0.672144       -18.2900
  68   2.0000      -0.661539       -18.0014
  69   2.0000      -0.645081       -17.5535
  70   2.0000      -0.640680       -17.4338
  71   2.0000      -0.629216       -17.1218
  72   2.0000      -0.628669       -17.1069
  73   2.0000      -0.622630       -16.9426
  74   2.0000      -0.613962       -16.7067
  75   2.0000      -0.607983       -16.5441
  76   2.0000      -0.591273       -16.0894
  77   2.0000      -0.582985       -15.8638
  78   2.0000      -0.567258       -15.4359
  79   2.0000      -0.559871       -15.2349
  80   2.0000      -0.552345       -15.0301
  81   2.0000      -0.551126       -14.9969
  82   2.0000      -0.547944       -14.9103
  83   2.0000      -0.537810       -14.6345
  84   2.0000      -0.534376       -14.5411
  85   2.0000      -0.531662       -14.4673
  86   2.0000      -0.526319       -14.3219
  87   2.0000      -0.520474       -14.1628
  88   2.0000      -0.518998       -14.1226
  89   2.0000      -0.514451       -13.9989
  90   2.0000      -0.500271       -13.6131
  91   2.0000      -0.497310       -13.5325
  92   2.0000      -0.496125       -13.5003
  93   2.0000      -0.480554       -13.0765
  94   2.0000      -0.472324       -12.8526
  95   2.0000      -0.470068       -12.7912
  96   2.0000      -0.465083       -12.6556
  97   2.0000      -0.452541       -12.3143
  98   2.0000      -0.448036       -12.1917
  99   2.0000      -0.445481       -12.1222
 100   2.0000      -0.443813       -12.0768
 101   2.0000      -0.438929       -11.9439
 102   2.0000      -0.434470       -11.8225
 103   2.0000      -0.424164       -11.5421
 104   2.0000      -0.399467       -10.8701
 105   2.0000      -0.395066       -10.7503
 106   2.0000      -0.388702       -10.5771
 107   2.0000      -0.387909       -10.5555
 108   2.0000      -0.379942       -10.3388
 109   2.0000      -0.374482       -10.1902
 110   2.0000      -0.370289       -10.0761
 111   2.0000      -0.352331        -9.5874
 112   2.0000      -0.330713        -8.9992
 113   2.0000      -0.308106        -8.3840
 114   2.0000      -0.297668        -8.1000
 115   2.0000      -0.281210        -7.6521
 116   0.0000      -0.048752        -1.3266
 117   0.0000      -0.004395        -0.1196
 118   0.0000       0.021695         0.5904
 119   0.0000       0.032396         0.8815
 120   0.0000       0.057514         1.5650

MULLIKEN ATOMIC CHARGES
-----------------------
   0 C :   -0.154126
   1 C :   -0.225985
   2 C :   -0.048113
   3 C :    0.174303
   4 C :   -0.228944
   5 C :   -0.089775
   6 C :   -0.016349
   7 C :    0.183422
   8 N :   -0.302448
   9 C :   -0.244768
  10 C :   -0.077718
  11 C :   -0.286680
  12 C :    0.214771
  13 H :    0.128556
  14 H :    0.236431
  15 H :    0.124561
  16 H :    0.208522
  17 H :    0.115414
  18 H :    0.122516
  19 H :    0.121904
  20 N :   -0.326889
  21 C :    0.093466
  22 C :   -0.195961
  23 S :    0.120991
  24 C :    0.255023
  25 C :    0.125356
  26 S :    0.053240
  27 C :    0.046545
  28 C :   -0.224585
  29 N :   -0.272246
  30 H :    0.185045
  31 H :    0.190482
  32 N :   -0.111706
  33 C :    0.121355
  34 C :    0.011976
  35 N :   -0.070961
  36 O :   -0.007163
  37 C :   -0.167637
  38 C :   -0.073676
  39 C :   -0.196048
  40 C :   -0.090712
  41 H :    0.167453
  42 H :    0.143479
  43 H :    0.115910
  44 H :    0.151767
Sum of atomic charges:   -0.0000000

LOEWDIN ATOMIC CHARGES
----------------------
   0 C :   -0.157945
   1 C :   -0.105163
   2 C :   -0.081379
   3 C :   -0.145209
   4 C :   -0.132714
   5 C :   -0.141488
   6 C :   -0.041361
   7 C :   -0.143614
   8 N :    0.200399
   9 C :   -0.129394
  10 C :   -0.141088
  11 C :   -0.125935
  12 C :   -0.110371
  13 H :    0.145857
  14 H :    0.193141
  15 H :    0.146610
  16 H :    0.154361
  17 H :    0.143232
  18 H :    0.144800
  19 H :    0.144295
  20 N :    0.138226
  21 C :   -0.285209
  22 C :   -0.335190
  23 S :    0.744854
  24 C :   -0.372325
  25 C :   -0.393869
  26 S :    0.743084
  27 C :   -0.322240
  28 C :   -0.232194
  29 N :    0.108478
  30 H :    0.141748
  31 H :    0.148284
  32 N :    0.026832
  33 C :   -0.199762
  34 C :   -0.228620
  35 N :    0.046185
  36 O :    0.224181
  37 C :   -0.089976
  38 C :   -0.118268
  39 C :   -0.057706
  40 C :   -0.118951
  41 H :    0.162079
  42 H :    0.153671
  43 H :    0.143818
  44 H :    0.155835

  Mayer bond orders larger than 0.1
B(  0-C ,  1-C ) :   1.5372 B(  0-C ,  5-C ) :   1.3626 B(  0-C , 19-H ) :   0.9811
B(  1-C ,  2-C ) :   1.2771 B(  1-C , 16-H ) :   0.9212 B(  2-C ,  3-C ) :   1.3699
B(  2-C ,  6-C ) :   1.0601 B(  3-C ,  4-C ) :   1.3074 B(  3-C ,  8-N ) :   1.1205
B(  4-C ,  5-C ) :   1.4846 B(  4-C , 17-H ) :   0.9761 B(  5-C , 18-H ) :   0.9813
B(  6-C ,  7-C ) :   1.3290 B(  6-C , 12-C ) :   1.2150 B(  7-C ,  8-N ) :   1.1510
B(  7-C ,  9-C ) :   1.2817 B(  8-N , 14-H ) :   0.9125 B(  9-C , 10-C ) :   1.4671
B(  9-C , 43-H ) :   0.9782 B( 10-C , 11-C ) :   1.4044 B( 10-C , 15-H ) :   0.9816
B( 11-C , 12-C ) :   1.4292 B( 11-C , 13-H ) :   0.9632 B( 12-C , 27-C ) :   0.8293
B( 20-N , 21-C ) :   1.2289 B( 20-N , 24-C ) :   1.6344 B( 21-C , 22-C ) :   1.6627
B( 21-C , 25-C ) :   0.9879 B( 22-C , 23-S ) :   1.2878 B( 22-C , 30-H ) :   0.9153
B( 23-S , 24-C ) :   1.2861 B( 24-C , 40-C ) :   0.9791 B( 25-C , 26-S ) :   1.3260
B( 25-C , 29-N ) :   1.6191 B( 26-S , 27-C ) :   1.2648 B( 27-C , 28-C ) :   1.5827
B( 28-C , 29-N ) :   1.3138 B( 28-C , 31-H ) :   0.9731 B( 32-N , 33-C ) :   1.5305
B( 32-N , 35-N ) :   0.1981 B( 32-N , 36-O ) :   1.0503 B( 33-C , 34-C ) :   1.1777
B( 33-C , 40-C ) :   1.0638 B( 34-C , 35-N ) :   1.6107 B( 34-C , 37-C ) :   1.1488
B( 35-N , 36-O ) :   1.0703 B( 37-C , 38-C ) :   1.6123 B( 37-C , 44-H ) :   0.9707
B( 38-C , 39-C ) :   1.2100 B( 38-C , 42-H ) :   0.9767 B( 39-C , 40-C ) :   1.6335
B( 39-C , 41-H ) :   0.9417

Dispersion correction           -0.020726294
FINAL SINGLE POINT ENERGY     -2067.779837740499

DIPOLE MOMENT
-------------
                                X             Y             Z
Electronic contribution:     26.15505      -8.78813      -3.48741
Nuclear contribution   :    -27.26743      10.44923       3.99841
                        -----------------------------------------
Total Dipole Moment    :     -1.11238       1.66110       0.51100
                        -----------------------------------------
Magnitude (a.u.)       :      2.06343
Magnitude (Debye)      :      5.24483

                             ****ORCA TERMINATED NORMALLY****
TOTAL RUN TIME: 0 days 0 hours 12 minutes 55 seconds 832 msec
