                         Program Version 4.0.0 -  RELEASE  -
|  1> #
|  2> !wB97X-D3 def2-TZVP def2/J RIJCOSX Grid5 FinalGrid6 TightSCF
|  3> %pal
|  4>  nprocs 24
|  5> end
|  6> %tddft
|  7>   Mode sTDDFT
|  8>   nroots 2
|  9>   Ethresh 10.0
| 10>   maxcore 5000
| 11>   triplets true
| 12> end
| 13> * xyz 0 1
| 14> C 8.55411275 2.42839027 1.73616982
| 15> C 7.97951050 1.45974095 0.91696987
| 16> C 8.81565455 0.63659641 0.13910567
| 17> C 10.22271148 0.83682450 0.21534607
| 18> C 10.80469572 1.80726174 1.04518908
| 19> C 9.94788842 2.59948077 1.80534964
| 20> C 8.60040927 -0.43119476 -0.82567886
| 21> C 9.89531449 -0.80459683 -1.29330153
| 22> N 10.85202170 -0.04572016 -0.64502726
| 23> C 10.10377482 -1.78119918 -2.27832603
| 24> C 8.97532498 -2.39091233 -2.82262615
| 25> C 7.69063676 -2.04473882 -2.38595245
| 26> C 7.46533734 -1.08534020 -1.37984023
| 27> H 6.83494219 -2.55342787 -2.82408762
| 28> H 11.85052816 -0.10329942 -0.80289984
| 29> H 9.08951602 -3.14746768 -3.59375385
| 30> H 6.90019534 1.34272631 0.88575495
| 31> H 11.88280864 1.93751377 1.08778586
| 32> H 10.36180688 3.36212929 2.45983383
| 33> H 7.91299374 3.06554131 2.33933999
| 34> S 1.21487063 -0.03761066 0.59443906
| 35> C 2.23740243 -0.55735883 -0.75427927
| 36> N 1.55041915 -0.88952647 -1.83975560
| 37> N 0.19909670 -0.76068456 -1.68867077
| 38> C -0.17612893 -0.33183710 -0.48801042
| 39> C 3.67808396 -0.60875507 -0.67028476
| 40> N 4.37052720 -0.28261223 0.41336790
| 41> N 5.72355840 -0.41149051 0.25036665
| 42> C 6.08596769 -0.82912108 -0.95214503
| 43> S 4.69327192 -1.12542003 -2.02568012
| 44> C -3.04816300 0.75023823 1.70550556
| 45> C -1.77493977 0.51750050 1.21182237
| 46> C -1.55101222 -0.11166936 -0.04833086
| 47> C -2.67014280 -0.50898903 -0.81296373
| 48> C -4.00452570 -0.24282544 -0.34528530
| 49> C -4.20047978 0.35391169 0.94217717
| 50> C -5.15797369 -0.62243220 -1.11529228
| 51> C -6.43888562 -0.36886373 -0.62416480
| 52> C -6.62553261 0.24903776 0.62460703
| 53> C -5.53035510 0.61682030 1.40491057
| 54> N -5.73530210 1.13803693 2.70357555
| 55> C -6.34203472 2.25429118 2.93248676
| 56> C -6.57045745 2.68908851 4.35914948
| 57> N -5.00800916 -1.11503953 -2.43004189
| 58> C -5.52565812 -2.22512882 -2.84087738
| 59> C -6.23611369 -3.22708221 -1.95021092
| 60> N -2.50252247 -1.06402245 -2.09272825
| 61> C -2.12405473 -2.27505100 -2.32454063
| 62> C -1.90039985 -2.72499382 -3.74400584
| 63> N -3.21620153 1.26399604 3.01263544
| 64> C -2.75722063 2.41152378 3.38731909
| 65> C -2.92552935 2.83548524 4.82552458
| 66> C -2.07456228 3.40933317 2.47105388
| 67> C -6.82548928 3.20730510 1.85577466
| 68> C -5.39836085 -2.60268439 -4.29608399
| 69> C -1.85833425 -3.29518398 -1.23649067
| 70> H -0.91792842 0.81077440 1.81297260
| 71> H -7.30212795 -0.63176856 -1.22875938
| 72> H -6.55292172 4.23200786 2.10376585
| 73> H -7.91227656 3.17331872 1.77540817
| 74> H -6.40471581 2.95388868 0.88654216
| 75> H -6.19019788 1.95069961 5.05868283
| 76> H -6.07397970 3.64009887 4.55418063
| 77> H -7.63289297 2.83920015 4.55177836
| 78> H -2.25260837 3.17258171 1.42551768
| 79> H -0.99751343 3.40859164 2.64024169
| 80> H -2.43182320 4.41794929 2.67265442
| 81> H -1.95750569 3.04220182 5.28215983
| 82> H -3.51014457 3.75377406 4.88930721
| 83> H -3.42645241 2.06528836 5.40441381
| 84> H -2.21277130 -1.96164973 -4.45031489
| 85> H -0.84266594 -2.93326608 -3.90645691
| 86> H -2.44625377 -3.64499389 -3.95272652
| 87> H -0.78399647 -3.43481344 -1.11428316
| 88> H -2.26892538 -2.96866280 -0.28435190
| 89> H -2.28715069 -4.26175406 -1.49619590
| 90> H -4.88536046 -3.55864177 -4.40392875
| 91> H -6.38313948 -2.71782470 -4.74974472
| 92> H -4.84753542 -1.84806850 -4.84948349
| 93> H -7.31208161 -3.20067719 -2.12418188
| 94> H -5.89905842 -4.23829777 -2.17358803
| 95> H -6.05667437 -3.01845817 -0.89900347
| 96> H 11.10480456 -2.04222379 -2.60999001
| 97> H -7.63109470 0.43423127 0.99115956
| 98> *
| 99> $new_job
|100> #
|101> !wB97X-D3 def2-TZVP def2/J RIJCOSX Grid5 FinalGrid6 TightSCF
|102> %pal
|103>  nprocs 24
|104> end
|105> %elprop
|106>    dipole     true
|107>    quadrupole true
|108> end
|109> %tddft
|110>   Mode sTDDFT
|111>   nroots 2
|112>   Ethresh 10.0
|113>   maxcore 5000
|114> end
|115> * xyz 0 1
|116> C 8.55411275 2.42839027 1.73616982
|117> C 7.97951050 1.45974095 0.91696987
|118> C 8.81565455 0.63659641 0.13910567
|119> C 10.22271148 0.83682450 0.21534607
|120> C 10.80469572 1.80726174 1.04518908
|121> C 9.94788842 2.59948077 1.80534964
|122> C 8.60040927 -0.43119476 -0.82567886
|123> C 9.89531449 -0.80459683 -1.29330153
|124> N 10.85202170 -0.04572016 -0.64502726
|125> C 10.10377482 -1.78119918 -2.27832603
|126> C 8.97532498 -2.39091233 -2.82262615
|127> C 7.69063676 -2.04473882 -2.38595245
|128> C 7.46533734 -1.08534020 -1.37984023
|129> H 6.83494219 -2.55342787 -2.82408762
|130> H 11.85052816 -0.10329942 -0.80289984
|131> H 9.08951602 -3.14746768 -3.59375385
|132> H 6.90019534 1.34272631 0.88575495
|133> H 11.88280864 1.93751377 1.08778586
|134> H 10.36180688 3.36212929 2.45983383
|135> H 7.91299374 3.06554131 2.33933999
|136> S 1.21487063 -0.03761066 0.59443906
|137> C 2.23740243 -0.55735883 -0.75427927
|138> N 1.55041915 -0.88952647 -1.83975560
|139> N 0.19909670 -0.76068456 -1.68867077
|140> C -0.17612893 -0.33183710 -0.48801042
|141> C 3.67808396 -0.60875507 -0.67028476
|142> N 4.37052720 -0.28261223 0.41336790
|143> N 5.72355840 -0.41149051 0.25036665
|144> C 6.08596769 -0.82912108 -0.95214503
|145> S 4.69327192 -1.12542003 -2.02568012
|146> C -3.04816300 0.75023823 1.70550556
|147> C -1.77493977 0.51750050 1.21182237
|148> C -1.55101222 -0.11166936 -0.04833086
|149> C -2.67014280 -0.50898903 -0.81296373
|150> C -4.00452570 -0.24282544 -0.34528530
|151> C -4.20047978 0.35391169 0.94217717
|152> C -5.15797369 -0.62243220 -1.11529228
|153> C -6.43888562 -0.36886373 -0.62416480
|154> C -6.62553261 0.24903776 0.62460703
|155> C -5.53035510 0.61682030 1.40491057
|156> N -5.73530210 1.13803693 2.70357555
|157> C -6.34203472 2.25429118 2.93248676
|158> C -6.57045745 2.68908851 4.35914948
|159> N -5.00800916 -1.11503953 -2.43004189
|160> C -5.52565812 -2.22512882 -2.84087738
|161> C -6.23611369 -3.22708221 -1.95021092
|162> N -2.50252247 -1.06402245 -2.09272825
|163> C -2.12405473 -2.27505100 -2.32454063
|164> C -1.90039985 -2.72499382 -3.74400584
|165> N -3.21620153 1.26399604 3.01263544
|166> C -2.75722063 2.41152378 3.38731909
|167> C -2.92552935 2.83548524 4.82552458
|168> C -2.07456228 3.40933317 2.47105388
|169> C -6.82548928 3.20730510 1.85577466
|170> C -5.39836085 -2.60268439 -4.29608399
|171> C -1.85833425 -3.29518398 -1.23649067
|172> H -0.91792842 0.81077440 1.81297260
|173> H -7.30212795 -0.63176856 -1.22875938
|174> H -6.55292172 4.23200786 2.10376585
|175> H -7.91227656 3.17331872 1.77540817
|176> H -6.40471581 2.95388868 0.88654216
|177> H -6.19019788 1.95069961 5.05868283
|178> H -6.07397970 3.64009887 4.55418063
|179> H -7.63289297 2.83920015 4.55177836
|180> H -2.25260837 3.17258171 1.42551768
|181> H -0.99751343 3.40859164 2.64024169
|182> H -2.43182320 4.41794929 2.67265442
|183> H -1.95750569 3.04220182 5.28215983
|184> H -3.51014457 3.75377406 4.88930721
|185> H -3.42645241 2.06528836 5.40441381
|186> H -2.21277130 -1.96164973 -4.45031489
|187> H -0.84266594 -2.93326608 -3.90645691
|188> H -2.44625377 -3.64499389 -3.95272652
|189> H -0.78399647 -3.43481344 -1.11428316
|190> H -2.26892538 -2.96866280 -0.28435190
|191> H -2.28715069 -4.26175406 -1.49619590
|192> H -4.88536046 -3.55864177 -4.40392875
|193> H -6.38313948 -2.71782470 -4.74974472
|194> H -4.84753542 -1.84806850 -4.84948349
|195> H -7.31208161 -3.20067719 -2.12418188
|196> H -5.89905842 -4.23829777 -2.17358803
|197> H -6.05667437 -3.01845817 -0.89900347
|198> H 11.10480456 -2.04222379 -2.60999001
|199> H -7.63109470 0.43423127 0.99115956
|200> *
|201>
|202>                          ****END OF INPUT****
 Total Charge           Charge          ....    0
 Multiplicity           Mult            ....    1
 Number of Electrons    NEL             ....  358
Dispersion correction           -0.048866301
FINAL SINGLE POINT ENERGY     -2758.366370157547

CARTESIAN COORDINATES (ANGSTROEM)
---------------------------------
  C      8.554113    2.428390    1.736170
  C      7.979510    1.459741    0.916970
  C      8.815655    0.636596    0.139106
  C     10.222711    0.836824    0.215346
  C     10.804696    1.807262    1.045189
  C      9.947888    2.599481    1.805350
  C      8.600409   -0.431195   -0.825679
  C      9.895314   -0.804597   -1.293302
  N     10.852022   -0.045720   -0.645027
  C     10.103775   -1.781199   -2.278326
  C      8.975325   -2.390912   -2.822626
  C      7.690637   -2.044739   -2.385952
  C      7.465337   -1.085340   -1.379840
  H      6.834942   -2.553428   -2.824088
  H     11.850528   -0.103299   -0.802900
  H      9.089516   -3.147468   -3.593754
  H      6.900195    1.342726    0.885755
  H     11.882809    1.937514    1.087786
  H     10.361807    3.362129    2.459834
  H      7.912994    3.065541    2.339340
  S      1.214871   -0.037611    0.594439
  C      2.237402   -0.557359   -0.754279
  N      1.550419   -0.889526   -1.839756
  N      0.199097   -0.760685   -1.688671
  C     -0.176129   -0.331837   -0.488010
  C      3.678084   -0.608755   -0.670285
  N      4.370527   -0.282612    0.413368
  N      5.723558   -0.411491    0.250367
  C      6.085968   -0.829121   -0.952145
  S      4.693272   -1.125420   -2.025680
  C     -3.048163    0.750238    1.705506
  C     -1.774940    0.517501    1.211822
  C     -1.551012   -0.111669   -0.048331
  C     -2.670143   -0.508989   -0.812964
  C     -4.004526   -0.242825   -0.345285
  C     -4.200480    0.353912    0.942177
  C     -5.157974   -0.622432   -1.115292
  C     -6.438886   -0.368864   -0.624165
  C     -6.625533    0.249038    0.624607
  C     -5.530355    0.616820    1.404911
  N     -5.735302    1.138037    2.703576
  C     -6.342035    2.254291    2.932487
  C     -6.570457    2.689089    4.359149
  N     -5.008009   -1.115040   -2.430042
  C     -5.525658   -2.225129   -2.840877
  C     -6.236114   -3.227082   -1.950211
  N     -2.502522   -1.064022   -2.092728
  C     -2.124055   -2.275051   -2.324541
  C     -1.900400   -2.724994   -3.744006
  N     -3.216202    1.263996    3.012635
  C     -2.757221    2.411524    3.387319
  C     -2.925529    2.835485    4.825525
  C     -2.074562    3.409333    2.471054
  C     -6.825489    3.207305    1.855775
  C     -5.398361   -2.602684   -4.296084
  C     -1.858334   -3.295184   -1.236491
  H     -0.917928    0.810774    1.812973
  H     -7.302128   -0.631769   -1.228759
  H     -6.552922    4.232008    2.103766
  H     -7.912277    3.173319    1.775408
  H     -6.404716    2.953889    0.886542
  H     -6.190198    1.950700    5.058683
  H     -6.073980    3.640099    4.554181
  H     -7.632893    2.839200    4.551778
  H     -2.252608    3.172582    1.425518
  H     -0.997513    3.408592    2.640242
  H     -2.431823    4.417949    2.672654
  H     -1.957506    3.042202    5.282160
  H     -3.510145    3.753774    4.889307
  H     -3.426452    2.065288    5.404414
  H     -2.212771   -1.961650   -4.450315
  H     -0.842666   -2.933266   -3.906457
  H     -2.446254   -3.644994   -3.952727
  H     -0.783996   -3.434813   -1.114283
  H     -2.268925   -2.968663   -0.284352
  H     -2.287151   -4.261754   -1.496196
  H     -4.885360   -3.558642   -4.403929
  H     -6.383139   -2.717825   -4.749745
  H     -4.847535   -1.848068   -4.849483
  H     -7.312082   -3.200677   -2.124182
  H     -5.899058   -4.238298   -2.173588
  H     -6.056674   -3.018458   -0.899003
  H     11.104805   -2.042224   -2.609990
  H     -7.631095    0.434231    0.991160

 Multiplicity           Mult            ....    1
 Number of Electrons    NEL             ....  358
 Basis Dimension        Dim             .... 1741

ORBITAL ENERGIES
----------------

  NO   OCC          E(Eh)            E(eV)
   0   2.0000     -89.001649     -2421.8580
   1   2.0000     -88.996758     -2421.7249
   2   2.0000     -14.468651      -393.7120
   3   2.0000     -14.466112      -393.6429
   4   2.0000     -14.464151      -393.5896
   5   2.0000     -14.459116      -393.4525
   6   2.0000     -14.449479      -393.1903
   7   2.0000     -14.412977      -392.1971
   8   2.0000     -14.411646      -392.1608
   9   2.0000     -14.411367      -392.1532
  10   2.0000     -14.407816      -392.0566
  11   2.0000     -10.373093      -282.2662
  12   2.0000     -10.369301      -282.1630
  13   2.0000     -10.367892      -282.1247
  14   2.0000     -10.365087      -282.0484
  15   2.0000     -10.334704      -281.2216
  16   2.0000     -10.334648      -281.2201
  17   2.0000     -10.334296      -281.2105
  18   2.0000     -10.332442      -281.1600
  19   2.0000     -10.331434      -281.1326
  20   2.0000     -10.330264      -281.1008
  21   2.0000     -10.323968      -280.9295
  22   2.0000     -10.317951      -280.7657
  23   2.0000     -10.316944      -280.7383
  24   2.0000     -10.315000      -280.6854
  25   2.0000     -10.314685      -280.6769
  26   2.0000     -10.302488      -280.3449
  27   2.0000     -10.301088      -280.3068
  28   2.0000     -10.300338      -280.2864
  29   2.0000     -10.299922      -280.2751
  30   2.0000     -10.296988      -280.1953
  31   2.0000     -10.293828      -280.1093
  32   2.0000     -10.292116      -280.0627
  33   2.0000     -10.286752      -279.9167
  34   2.0000     -10.283360      -279.8245
  35   2.0000     -10.282509      -279.8013
  36   2.0000     -10.281571      -279.7758
  37   2.0000     -10.280196      -279.7384
  38   2.0000     -10.278573      -279.6942
  39   2.0000     -10.277523      -279.6656
  40   2.0000     -10.277244      -279.6580
  41   2.0000     -10.276053      -279.6256
  42   2.0000     -10.275135      -279.6006
  43   2.0000     -10.274670      -279.5880
  44   2.0000     -10.273901      -279.5670
  45   2.0000     -10.273873      -279.5663
  46   2.0000     -10.271023      -279.4887
  47   2.0000     -10.268836      -279.4292
  48   2.0000     -10.266043      -279.3532
  49   2.0000      -8.097896      -220.3550
  50   2.0000      -8.093085      -220.2240
  51   2.0000      -6.050973      -164.6553
  52   2.0000      -6.047081      -164.5494
  53   2.0000      -6.046132      -164.5236
  54   2.0000      -6.044968      -164.4919
  55   2.0000      -6.042362      -164.4210
  56   2.0000      -6.040101      -164.3595
  57   2.0000      -1.148442       -31.2507
  58   2.0000      -1.138924       -30.9917
  59   2.0000      -1.105759       -30.0892
  60   2.0000      -1.059696       -28.8358
  61   2.0000      -1.050540       -28.5867
  62   2.0000      -1.037290       -28.2261
  63   2.0000      -1.033530       -28.1238
  64   2.0000      -0.989598       -26.9283
  65   2.0000      -0.978027       -26.6135
  66   2.0000      -0.970954       -26.4210
  67   2.0000      -0.961656       -26.1680
  68   2.0000      -0.950687       -25.8695
  69   2.0000      -0.934094       -25.4180
  70   2.0000      -0.918238       -24.9865
  71   2.0000      -0.908695       -24.7268
  72   2.0000      -0.906782       -24.6748
  73   2.0000      -0.898557       -24.4510
  74   2.0000      -0.885790       -24.1036
  75   2.0000      -0.873480       -23.7686
  76   2.0000      -0.872189       -23.7335
  77   2.0000      -0.864998       -23.5378
  78   2.0000      -0.860469       -23.4145
  79   2.0000      -0.844469       -22.9792
  80   2.0000      -0.839013       -22.8307
  81   2.0000      -0.833237       -22.6735
  82   2.0000      -0.822538       -22.3824
  83   2.0000      -0.820605       -22.3298
  84   2.0000      -0.818340       -22.2682
  85   2.0000      -0.813932       -22.1482
  86   2.0000      -0.801602       -21.8127
  87   2.0000      -0.779789       -21.2191
  88   2.0000      -0.766764       -20.8647
  89   2.0000      -0.755412       -20.5558
  90   2.0000      -0.738857       -20.1053
  91   2.0000      -0.725964       -19.7545
  92   2.0000      -0.724722       -19.7207
  93   2.0000      -0.720789       -19.6137
  94   2.0000      -0.711431       -19.3590
  95   2.0000      -0.697375       -18.9765
  96   2.0000      -0.677837       -18.4449
  97   2.0000      -0.666429       -18.1345
  98   2.0000      -0.659566       -17.9477
  99   2.0000      -0.655249       -17.8302
 100   2.0000      -0.649889       -17.6844
 101   2.0000      -0.639276       -17.3956
 102   2.0000      -0.622431       -16.9372
 103   2.0000      -0.614724       -16.7275
 104   2.0000      -0.607636       -16.5346
 105   2.0000      -0.605250       -16.4697
 106   2.0000      -0.595873       -16.2145
 107   2.0000      -0.587286       -15.9809
 108   2.0000      -0.583658       -15.8821
 109   2.0000      -0.581589       -15.8258
 110   2.0000      -0.574020       -15.6199
 111   2.0000      -0.567266       -15.4361
 112   2.0000      -0.566755       -15.4222
 113   2.0000      -0.563664       -15.3381
 114   2.0000      -0.560122       -15.2417
 115   2.0000      -0.559499       -15.2247
 116   2.0000      -0.554583       -15.0910
 117   2.0000      -0.554110       -15.0781
 118   2.0000      -0.551426       -15.0051
 119   2.0000      -0.547761       -14.9053
 120   2.0000      -0.545348       -14.8397
 121   2.0000      -0.542742       -14.7688
 122   2.0000      -0.540547       -14.7090
 123   2.0000      -0.537170       -14.6172
 124   2.0000      -0.535814       -14.5802
 125   2.0000      -0.534382       -14.5413
 126   2.0000      -0.529957       -14.4209
 127   2.0000      -0.528287       -14.3754
 128   2.0000      -0.526322       -14.3219
 129   2.0000      -0.523385       -14.2420
 130   2.0000      -0.521419       -14.1885
 131   2.0000      -0.516207       -14.0467
 132   2.0000      -0.514743       -14.0069
 133   2.0000      -0.505993       -13.7688
 134   2.0000      -0.500112       -13.6087
 135   2.0000      -0.499324       -13.5873
 136   2.0000      -0.498440       -13.5632
 137   2.0000      -0.495260       -13.4767
 138   2.0000      -0.491143       -13.3647
 139   2.0000      -0.489668       -13.3245
 140   2.0000      -0.485505       -13.2113
 141   2.0000      -0.484738       -13.1904
 142   2.0000      -0.478030       -13.0079
 143   2.0000      -0.474804       -12.9201
 144   2.0000      -0.471715       -12.8360
 145   2.0000      -0.469295       -12.7702
 146   2.0000      -0.466146       -12.6845
 147   2.0000      -0.466074       -12.6825
 148   2.0000      -0.465440       -12.6653
 149   2.0000      -0.461928       -12.5697
 150   2.0000      -0.457675       -12.4540
 151   2.0000      -0.453042       -12.3279
 152   2.0000      -0.449240       -12.2244
 153   2.0000      -0.443711       -12.0740
 154   2.0000      -0.439281       -11.9534
 155   2.0000      -0.432351       -11.7649
 156   2.0000      -0.420470       -11.4416
 157   2.0000      -0.417002       -11.3472
 158   2.0000      -0.411903       -11.2084
 159   2.0000      -0.406997       -11.0750
 160   2.0000      -0.397689       -10.8217
 161   2.0000      -0.395084       -10.7508
 162   2.0000      -0.392576       -10.6825
 163   2.0000      -0.389140       -10.5890
 164   2.0000      -0.385411       -10.4876
 165   2.0000      -0.379517       -10.3272
 166   2.0000      -0.370646       -10.0858
 167   2.0000      -0.363346        -9.8871
 168   2.0000      -0.360613        -9.8128
 169   2.0000      -0.357504        -9.7282
 170   2.0000      -0.347636        -9.4597
 171   2.0000      -0.336010        -9.1433
 172   2.0000      -0.331235        -9.0134
 173   2.0000      -0.324227        -8.8227
 174   2.0000      -0.315530        -8.5860
 175   2.0000      -0.302264        -8.2250
 176   2.0000      -0.297550        -8.0968
 177   2.0000      -0.287825        -7.8321
 178   2.0000      -0.244247        -6.6463
 179   0.0000      -0.027677        -0.7531
 180   0.0000       0.006261         0.1704
 181   0.0000       0.026996         0.7346
 182   0.0000       0.037891         1.0311
 183   0.0000       0.045044         1.2257

MULLIKEN ATOMIC CHARGES
-----------------------
   0 C :   -0.170932
   1 C :   -0.132468
   2 C :   -0.029870
   3 C :    0.171251
   4 C :   -0.237576
   5 C :   -0.079928
   6 C :   -0.026988
   7 C :    0.186589
   8 N :   -0.303038
   9 C :   -0.224155
  10 C :   -0.099809
  11 C :   -0.278132
  12 C :    0.125400
  13 H :    0.129150
  14 H :    0.235995
  15 H :    0.126455
  16 H :    0.156882
  17 H :    0.112050
  18 H :    0.120827
  19 H :    0.118219
  20 S :    0.050921
  21 C :    0.122422
  22 N :   -0.210423
  23 N :   -0.131405
  24 C :    0.159773
  25 C :    0.105203
  26 N :   -0.175686
  27 N :   -0.187808
  28 C :    0.150259
  29 S :    0.057579
  30 C :    0.028047
  31 C :   -0.396325
  32 C :    0.177704
  33 C :   -0.168446
  34 C :    0.188940
  35 C :    0.134553
  36 C :    0.034289
  37 C :   -0.196590
  38 C :   -0.204225
  39 C :    0.033463
  40 N :   -0.220444
  41 C :    0.115461
  42 C :   -0.346180
  43 N :   -0.237236
  44 C :    0.124432
  45 C :   -0.378383
  46 N :   -0.195440
  47 C :    0.163887
  48 C :   -0.362725
  49 N :   -0.240509
  50 C :    0.121359
  51 C :   -0.351028
  52 C :   -0.376338
  53 C :   -0.370396
  54 C :   -0.352054
  55 C :   -0.355626
  56 H :    0.130701
  57 H :    0.126034
  58 H :    0.125761
  59 H :    0.136574
  60 H :    0.160998
  61 H :    0.143170
  62 H :    0.114400
  63 H :    0.133647
  64 H :    0.161762
  65 H :    0.141147
  66 H :    0.126104
  67 H :    0.136960
  68 H :    0.114540
  69 H :    0.143400
  70 H :    0.140452
  71 H :    0.151338
  72 H :    0.107591
  73 H :    0.149984
  74 H :    0.150821
  75 H :    0.124128
  76 H :    0.116700
  77 H :    0.134632
  78 H :    0.145203
  79 H :    0.138554
  80 H :    0.126481
  81 H :    0.161952
  82 H :    0.121133
  83 H :    0.124886
Sum of atomic charges:   -0.0000000

LOEWDIN ATOMIC CHARGES
----------------------
   0 C :   -0.158453
   1 C :   -0.091285
   2 C :   -0.077678
   3 C :   -0.144812
   4 C :   -0.137006
   5 C :   -0.139864
   6 C :   -0.028258
   7 C :   -0.143328
   8 N :    0.201062
   9 C :   -0.119175
  10 C :   -0.142097
  11 C :   -0.123716
  12 C :   -0.115437
  13 H :    0.145220
  14 H :    0.193254
  15 H :    0.147576
  16 H :    0.154336
  17 H :    0.142259
  18 H :    0.144174
  19 H :    0.143734
  20 S :    0.721269
  21 C :   -0.467807
  22 N :    0.040526
  23 N :    0.049807
  24 C :   -0.370896
  25 C :   -0.458556
  26 N :    0.041109
  27 N :    0.046855
  28 C :   -0.376304
  29 S :    0.732352
  30 C :   -0.166377
  31 C :   -0.101634
  32 C :   -0.145646
  33 C :   -0.106229
  34 C :   -0.030849
  35 C :   -0.028127
  36 C :   -0.159600
  37 C :   -0.126129
  38 C :   -0.121668
  39 C :   -0.163798
  40 N :    0.187729
  41 C :   -0.267060
  42 C :   -0.262711
  43 N :    0.190448
  44 C :   -0.267094
  45 C :   -0.269861
  46 N :    0.207986
  47 C :   -0.259283
  48 C :   -0.256948
  49 N :    0.187557
  50 C :   -0.265752
  51 C :   -0.262720
  52 C :   -0.268910
  53 C :   -0.268192
  54 C :   -0.263059
  55 C :   -0.261724
  56 H :    0.147479
  57 H :    0.149441
  58 H :    0.127957
  59 H :    0.133174
  60 H :    0.135230
  61 H :    0.131843
  62 H :    0.126158
  63 H :    0.129861
  64 H :    0.135393
  65 H :    0.134509
  66 H :    0.127565
  67 H :    0.130917
  68 H :    0.125822
  69 H :    0.131738
  70 H :    0.132716
  71 H :    0.138450
  72 H :    0.123261
  73 H :    0.138540
  74 H :    0.134524
  75 H :    0.126771
  76 H :    0.125979
  77 H :    0.130279
  78 H :    0.132375
  79 H :    0.132921
  80 H :    0.128000
  81 H :    0.135215
  82 H :    0.145434
  83 H :    0.149239

  Mayer bond orders larger than 0.1
B(  0-C ,  1-C ) :   1.5365 B(  0-C ,  5-C ) :   1.3540 B(  0-C , 19-H ) :   0.9848
B(  1-C ,  2-C ) :   1.2712 B(  1-C , 16-H ) :   0.9355 B(  2-C ,  3-C ) :   1.3548
B(  2-C ,  6-C ) :   1.0876 B(  3-C ,  4-C ) :   1.3052 B(  3-C ,  8-N ) :   1.1134
B(  4-C ,  5-C ) :   1.4834 B(  4-C , 17-H ) :   0.9775 B(  5-C , 18-H ) :   0.9814
B(  6-C ,  7-C ) :   1.3199 B(  6-C , 12-C ) :   1.2459 B(  7-C ,  8-N ) :   1.1548
B(  7-C ,  9-C ) :   1.2883 B(  8-N , 14-H ) :   0.9127 B(  9-C , 10-C ) :   1.4696
B(  9-C , 82-H ) :   0.9713 B( 10-C , 11-C ) :   1.4204 B( 10-C , 15-H ) :   0.9806
B( 11-C , 12-C ) :   1.4090 B( 11-C , 13-H ) :   0.9598 B( 12-C , 28-C ) :   0.9486
B( 20-S , 21-C ) :   1.2943 B( 20-S , 24-C ) :   1.3133 B( 20-S , 32-C ) :  -0.1220
B( 21-C , 22-N ) :   1.7008 B( 21-C , 25-C ) :   0.9457 B( 22-N , 23-N ) :   1.1290
B( 23-N , 24-C ) :   1.6669 B( 24-C , 32-C ) :   0.9592 B( 25-C , 26-N ) :   1.7246
B( 25-C , 29-S ) :   1.3082 B( 26-N , 27-N ) :   1.1146 B( 27-N , 28-C ) :   1.6449
B( 28-C , 29-S ) :   1.2900 B( 30-C , 31-C ) :   1.6271 B( 30-C , 35-C ) :   1.1857
B( 30-C , 49-N ) :   1.0835 B( 31-C , 32-C ) :   1.0987 B( 31-C , 56-H ) :   0.9456
B( 32-C , 33-C ) :   1.4888 B( 33-C , 34-C ) :   1.2110 B( 33-C , 46-N ) :   1.2294
B( 34-C , 35-C ) :   1.2805 B( 34-C , 36-C ) :   1.2371 B( 35-C , 39-C ) :   1.2364
B( 36-C , 37-C ) :   1.4940 B( 36-C , 39-C ) :   0.1024 B( 36-C , 43-N ) :   1.0987
B( 37-C , 38-C ) :   1.2424 B( 37-C , 57-H ) :   0.9813 B( 38-C , 39-C ) :   1.5016
B( 38-C , 83-H ) :   0.9827 B( 39-C , 40-N ) :   1.1060 B( 40-N , 41-C ) :   1.9011
B( 41-C , 42-C ) :   0.9590 B( 41-C , 53-C ) :   0.9476 B( 42-C , 61-H ) :   0.9882
B( 42-C , 62-H ) :   0.9662 B( 42-C , 63-H ) :   0.9564 B( 43-N , 44-C ) :   1.8945
B( 44-C , 45-C ) :   0.9466 B( 44-C , 54-C ) :   0.9578 B( 45-C , 79-H ) :   0.9616
B( 45-C , 80-H ) :   0.9613 B( 45-C , 81-H ) :   0.9794 B( 46-N , 47-C ) :   1.8132
B( 47-C , 48-C ) :   0.9535 B( 47-C , 55-C ) :   0.9425 B( 48-C , 70-H ) :   0.9920
B( 48-C , 71-H ) :   0.9440 B( 48-C , 72-H ) :   0.9726 B( 49-N , 50-C ) :   1.8979
B( 50-C , 51-C ) :   0.9578 B( 50-C , 52-C ) :   0.9469 B( 51-C , 67-H ) :   0.9557
B( 51-C , 68-H ) :   0.9672 B( 51-C , 69-H ) :   0.9885 B( 52-C , 64-H ) :   0.9781
B( 52-C , 65-H ) :   0.9610 B( 52-C , 66-H ) :   0.9618 B( 53-C , 58-H ) :   0.9612
B( 53-C , 59-H ) :   0.9612 B( 53-C , 60-H ) :   0.9788 B( 54-C , 76-H ) :   0.9676
B( 54-C , 77-H ) :   0.9544 B( 54-C , 78-H ) :   0.9891 B( 55-C , 73-H ) :   0.9555
B( 55-C , 74-H ) :   0.9807 B( 55-C , 75-H ) :   0.9631

Dispersion correction           -0.048866301
FINAL SINGLE POINT ENERGY     -2758.366370083384

DIPOLE MOMENT
-------------
                                X             Y             Z
Electronic contribution:     67.07529      -6.30105      -9.73618
Nuclear contribution   :    -67.32987       6.25125       9.49733
                        -----------------------------------------
Total Dipole Moment    :     -0.25458      -0.04980      -0.23885
                        -----------------------------------------
Magnitude (a.u.)       :      0.35262
Magnitude (Debye)      :      0.89628

                             ****ORCA TERMINATED NORMALLY****
TOTAL RUN TIME: 0 days 0 hours 36 minutes 5 seconds 322 msec
