                         Program Version 4.0.0 -  RELEASE  -
|  1> #
|  2> !wB97X-D3 def2-TZVP def2/J RIJCOSX Grid5 FinalGrid6 TightSCF
|  3> %pal
|  4>  nprocs 24
|  5> end
|  6> %tddft
|  7>   Mode sTDDFT
|  8>   nroots 2
|  9>   Ethresh 10.0
| 10>   maxcore 5000
| 11>   triplets true
| 12> end
| 13> * xyz 0 1
| 14> C 7.10724641 0.70897087 -2.24966552
| 15> C 6.16301477 0.45223537 -1.25801448
| 16> C 6.52598934 -0.34674750 -0.15824581
| 17> C 7.83850340 -0.89615186 -0.11991922
| 18> C 8.79403701 -0.63173198 -1.11294745
| 19> C 8.40962032 0.18454823 -2.17444436
| 20> C 5.83212040 -0.85143210 1.01555860
| 21> C 6.75191790 -1.71176490 1.67998751
| 22> N 7.95682902 -1.70286082 0.99879343
| 23> C 6.41275881 -2.44774438 2.82594780
| 24> C 5.10732164 -2.32496782 3.29907887
| 25> C 4.18571188 -1.47465362 2.67264721
| 26> C 4.52392306 -0.70183385 1.54648297
| 27> H 3.18462156 -1.38450290 3.08715105
| 28> H 8.77511366 -2.24391534 1.24967997
| 29> H 4.79892241 -2.88840815 4.17554457
| 30> H 5.15837211 0.85382349 -1.35234378
| 31> H 9.79292710 -1.05672052 -1.06056382
| 32> H 9.12259863 0.40975169 -2.96313614
| 33> H 6.83311970 1.32536169 -3.10142441
| 34> N -0.86946100 1.11364427 0.16466123
| 35> C 0.19824835 1.98017022 -0.02812423
| 36> C -0.13571627 3.22475172 -0.53574065
| 37> S -1.86058843 3.33158764 -0.78844397
| 38> C -2.02436873 1.66150170 -0.18303147
| 39> C 1.53990733 1.53294394 0.30468846
| 40> S 1.81975274 -0.09616298 0.94211157
| 41> C 3.54581830 0.24881332 1.00300336
| 42> C 3.76128873 1.54516800 0.56881344
| 43> N 2.64677605 2.25242513 0.17949619
| 44> H 0.54280105 4.03781232 -0.75660227
| 45> H 4.73443487 2.03116873 0.55624844
| 46> C -8.16554374 -2.77381163 0.35165771
| 47> C -7.37191500 -1.60336313 0.14773568
| 48> C -6.04927035 -1.74362248 0.56438082
| 49> S -5.78504224 -3.34893016 1.23358309
| 50> C -7.44851671 -3.79191858 0.93365852
| 51> C -5.12349158 -0.67766814 0.32505129
| 52> C -5.59536537 0.52649997 -0.19122591
| 53> C -7.09120765 0.77902839 -0.36932542
| 54> O -7.85586341 -0.48892979 -0.45037458
| 55> C -4.55758138 1.46840714 -0.41739027
| 56> C -3.29498885 0.99179366 -0.08961540
| 57> S -3.38649916 -0.66459625 0.51741849
| 58> C -7.64887398 1.55121191 0.85074117
| 59> H -9.21268003 -2.85169810 0.08340870
| 60> H -4.72323165 2.46816314 -0.80687062
| 61> H -8.71828061 1.71730303 0.74464046
| 62> H -7.15691777 2.51604517 0.94810461
| 63> H -7.47857987 0.98763312 1.76493323
| 64> C -7.39677946 1.52813437 -1.67640687
| 65> H -8.46972753 1.64866280 -1.80326049
| 66> H -6.94057531 2.51499718 -1.66863143
| 67> H -7.01092608 0.98034752 -2.53230519
| 68> H 7.13342113 -3.09823374 3.31328942
| 69> H -7.82522552 -4.77043500 1.20185590
| 70> *
| 71> $new_job
| 72> #
| 73> !wB97X-D3 def2-TZVP def2/J RIJCOSX Grid5 FinalGrid6 TightSCF
| 74> %pal
| 75>  nprocs 24
| 76> end
| 77> %elprop
| 78>    dipole     true
| 79>    quadrupole true
| 80> end
| 81> %tddft
| 82>   Mode sTDDFT
| 83>   nroots 2
| 84>   Ethresh 10.0
| 85>   maxcore 5000
| 86> end
| 87> * xyz 0 1
| 88> C 7.10724641 0.70897087 -2.24966552
| 89> C 6.16301477 0.45223537 -1.25801448
| 90> C 6.52598934 -0.34674750 -0.15824581
| 91> C 7.83850340 -0.89615186 -0.11991922
| 92> C 8.79403701 -0.63173198 -1.11294745
| 93> C 8.40962032 0.18454823 -2.17444436
| 94> C 5.83212040 -0.85143210 1.01555860
| 95> C 6.75191790 -1.71176490 1.67998751
| 96> N 7.95682902 -1.70286082 0.99879343
| 97> C 6.41275881 -2.44774438 2.82594780
| 98> C 5.10732164 -2.32496782 3.29907887
| 99> C 4.18571188 -1.47465362 2.67264721
|100> C 4.52392306 -0.70183385 1.54648297
|101> H 3.18462156 -1.38450290 3.08715105
|102> H 8.77511366 -2.24391534 1.24967997
|103> H 4.79892241 -2.88840815 4.17554457
|104> H 5.15837211 0.85382349 -1.35234378
|105> H 9.79292710 -1.05672052 -1.06056382
|106> H 9.12259863 0.40975169 -2.96313614
|107> H 6.83311970 1.32536169 -3.10142441
|108> N -0.86946100 1.11364427 0.16466123
|109> C 0.19824835 1.98017022 -0.02812423
|110> C -0.13571627 3.22475172 -0.53574065
|111> S -1.86058843 3.33158764 -0.78844397
|112> C -2.02436873 1.66150170 -0.18303147
|113> C 1.53990733 1.53294394 0.30468846
|114> S 1.81975274 -0.09616298 0.94211157
|115> C 3.54581830 0.24881332 1.00300336
|116> C 3.76128873 1.54516800 0.56881344
|117> N 2.64677605 2.25242513 0.17949619
|118> H 0.54280105 4.03781232 -0.75660227
|119> H 4.73443487 2.03116873 0.55624844
|120> C -8.16554374 -2.77381163 0.35165771
|121> C -7.37191500 -1.60336313 0.14773568
|122> C -6.04927035 -1.74362248 0.56438082
|123> S -5.78504224 -3.34893016 1.23358309
|124> C -7.44851671 -3.79191858 0.93365852
|125> C -5.12349158 -0.67766814 0.32505129
|126> C -5.59536537 0.52649997 -0.19122591
|127> C -7.09120765 0.77902839 -0.36932542
|128> O -7.85586341 -0.48892979 -0.45037458
|129> C -4.55758138 1.46840714 -0.41739027
|130> C -3.29498885 0.99179366 -0.08961540
|131> S -3.38649916 -0.66459625 0.51741849
|132> C -7.64887398 1.55121191 0.85074117
|133> H -9.21268003 -2.85169810 0.08340870
|134> H -4.72323165 2.46816314 -0.80687062
|135> H -8.71828061 1.71730303 0.74464046
|136> H -7.15691777 2.51604517 0.94810461
|137> H -7.47857987 0.98763312 1.76493323
|138> C -7.39677946 1.52813437 -1.67640687
|139> H -8.46972753 1.64866280 -1.80326049
|140> H -6.94057531 2.51499718 -1.66863143
|141> H -7.01092608 0.98034752 -2.53230519
|142> H 7.13342113 -3.09823374 3.31328942
|143> H -7.82522552 -4.77043500 1.20185590
|144> *
|145>
|146>                          ****END OF INPUT****
 Total Charge           Charge          ....    0
 Multiplicity           Mult            ....    1
 Number of Electrons    NEL             ....  286
Dispersion correction           -0.028348891
FINAL SINGLE POINT ENERGY     -2948.922134457280

CARTESIAN COORDINATES (ANGSTROEM)
---------------------------------
  C      7.107246    0.708971   -2.249666
  C      6.163015    0.452235   -1.258014
  C      6.525989   -0.346747   -0.158246
  C      7.838503   -0.896152   -0.119919
  C      8.794037   -0.631732   -1.112947
  C      8.409620    0.184548   -2.174444
  C      5.832120   -0.851432    1.015559
  C      6.751918   -1.711765    1.679988
  N      7.956829   -1.702861    0.998793
  C      6.412759   -2.447744    2.825948
  C      5.107322   -2.324968    3.299079
  C      4.185712   -1.474654    2.672647
  C      4.523923   -0.701834    1.546483
  H      3.184622   -1.384503    3.087151
  H      8.775114   -2.243915    1.249680
  H      4.798922   -2.888408    4.175545
  H      5.158372    0.853823   -1.352344
  H      9.792927   -1.056721   -1.060564
  H      9.122599    0.409752   -2.963136
  H      6.833120    1.325362   -3.101424
  N     -0.869461    1.113644    0.164661
  C      0.198248    1.980170   -0.028124
  C     -0.135716    3.224752   -0.535741
  S     -1.860588    3.331588   -0.788444
  C     -2.024369    1.661502   -0.183031
  C      1.539907    1.532944    0.304688
  S      1.819753   -0.096163    0.942112
  C      3.545818    0.248813    1.003003
  C      3.761289    1.545168    0.568813
  N      2.646776    2.252425    0.179496
  H      0.542801    4.037812   -0.756602
  H      4.734435    2.031169    0.556248
  C     -8.165544   -2.773812    0.351658
  C     -7.371915   -1.603363    0.147736
  C     -6.049270   -1.743622    0.564381
  S     -5.785042   -3.348930    1.233583
  C     -7.448517   -3.791919    0.933659
  C     -5.123492   -0.677668    0.325051
  C     -5.595365    0.526500   -0.191226
  C     -7.091208    0.779028   -0.369325
  O     -7.855863   -0.488930   -0.450375
  C     -4.557581    1.468407   -0.417390
  C     -3.294989    0.991794   -0.089615
  S     -3.386499   -0.664596    0.517418
  C     -7.648874    1.551212    0.850741
  H     -9.212680   -2.851698    0.083409
  H     -4.723232    2.468163   -0.806871
  H     -8.718281    1.717303    0.744640
  H     -7.156918    2.516045    0.948105
  H     -7.478580    0.987633    1.764933
  C     -7.396779    1.528134   -1.676407
  H     -8.469728    1.648663   -1.803260
  H     -6.940575    2.514997   -1.668631
  H     -7.010926    0.980348   -2.532305
  H      7.133421   -3.098234    3.313289
  H     -7.825226   -4.770435    1.201856

 Multiplicity           Mult            ....    1
 Number of Electrons    NEL             ....  286
 Basis Dimension        Dim             .... 1285

ORBITAL ENERGIES
----------------

  NO   OCC          E(Eh)            E(eV)
   0   2.0000     -88.998402     -2421.7696
   1   2.0000     -88.992260     -2421.6025
   2   2.0000     -88.987657     -2421.4772
   3   2.0000     -88.983564     -2421.3659
   4   2.0000     -19.273050      -524.4463
   5   2.0000     -14.467087      -393.6695
   6   2.0000     -14.437426      -392.8623
   7   2.0000     -14.426816      -392.5736
   8   2.0000     -10.374116      -282.2941
   9   2.0000     -10.373948      -282.2895
  10   2.0000     -10.356181      -281.8060
  11   2.0000     -10.355602      -281.7903
  12   2.0000     -10.339041      -281.3396
  13   2.0000     -10.336658      -281.2748
  14   2.0000     -10.335031      -281.2305
  15   2.0000     -10.327872      -281.0357
  16   2.0000     -10.325301      -280.9657
  17   2.0000     -10.324865      -280.9539
  18   2.0000     -10.324634      -280.9476
  19   2.0000     -10.321836      -280.8714
  20   2.0000     -10.320947      -280.8472
  21   2.0000     -10.309868      -280.5458
  22   2.0000     -10.309541      -280.5369
  23   2.0000     -10.308780      -280.5162
  24   2.0000     -10.304350      -280.3956
  25   2.0000     -10.295866      -280.1647
  26   2.0000     -10.294029      -280.1148
  27   2.0000     -10.288936      -279.9762
  28   2.0000     -10.288488      -279.9640
  29   2.0000     -10.287372      -279.9336
  30   2.0000     -10.285534      -279.8836
  31   2.0000     -10.283736      -279.8347
  32   2.0000     -10.282622      -279.8044
  33   2.0000     -10.280342      -279.7423
  34   2.0000     -10.280274      -279.7405
  35   2.0000     -10.276728      -279.6440
  36   2.0000     -10.274147      -279.5738
  37   2.0000      -8.094666      -220.2671
  38   2.0000      -8.088020      -220.0862
  39   2.0000      -8.083527      -219.9640
  40   2.0000      -8.079690      -219.8595
  41   2.0000      -6.047892      -164.5715
  42   2.0000      -6.043803      -164.4603
  43   2.0000      -6.041793      -164.4056
  44   2.0000      -6.041488      -164.3973
  45   2.0000      -6.037276      -164.2826
  46   2.0000      -6.037024      -164.2758
  47   2.0000      -6.034815      -164.2157
  48   2.0000      -6.032850      -164.1622
  49   2.0000      -6.032758      -164.1597
  50   2.0000      -6.030323      -164.0934
  51   2.0000      -6.028748      -164.0506
  52   2.0000      -6.027012      -164.0033
  53   2.0000      -1.188078       -32.3292
  54   2.0000      -1.103736       -30.0342
  55   2.0000      -1.091878       -29.7115
  56   2.0000      -1.069747       -29.1093
  57   2.0000      -1.018670       -27.7194
  58   2.0000      -0.999593       -27.2003
  59   2.0000      -0.975933       -26.5565
  60   2.0000      -0.964479       -26.2448
  61   2.0000      -0.937298       -25.5052
  62   2.0000      -0.921405       -25.0727
  63   2.0000      -0.918982       -25.0068
  64   2.0000      -0.912951       -24.8426
  65   2.0000      -0.898290       -24.4437
  66   2.0000      -0.888504       -24.1774
  67   2.0000      -0.867297       -23.6003
  68   2.0000      -0.862032       -23.4571
  69   2.0000      -0.851053       -23.1583
  70   2.0000      -0.842747       -22.9323
  71   2.0000      -0.838520       -22.8173
  72   2.0000      -0.830877       -22.6093
  73   2.0000      -0.820424       -22.3249
  74   2.0000      -0.807894       -21.9839
  75   2.0000      -0.765979       -20.8433
  76   2.0000      -0.752372       -20.4731
  77   2.0000      -0.731848       -19.9146
  78   2.0000      -0.719966       -19.5913
  79   2.0000      -0.718335       -19.5469
  80   2.0000      -0.712754       -19.3950
  81   2.0000      -0.708267       -19.2729
  82   2.0000      -0.700332       -19.0570
  83   2.0000      -0.681390       -18.5416
  84   2.0000      -0.669482       -18.2175
  85   2.0000      -0.660444       -17.9716
  86   2.0000      -0.645098       -17.5540
  87   2.0000      -0.640396       -17.4261
  88   2.0000      -0.627962       -17.0877
  89   2.0000      -0.618141       -16.8205
  90   2.0000      -0.610830       -16.6215
  91   2.0000      -0.590856       -16.0780
  92   2.0000      -0.586906       -15.9705
  93   2.0000      -0.580903       -15.8072
  94   2.0000      -0.573440       -15.6041
  95   2.0000      -0.567384       -15.4393
  96   2.0000      -0.560877       -15.2622
  97   2.0000      -0.556779       -15.1507
  98   2.0000      -0.554052       -15.0765
  99   2.0000      -0.546176       -14.8622
 100   2.0000      -0.544154       -14.8072
 101   2.0000      -0.542914       -14.7734
 102   2.0000      -0.534513       -14.5448
 103   2.0000      -0.532620       -14.4933
 104   2.0000      -0.528411       -14.3788
 105   2.0000      -0.525663       -14.3040
 106   2.0000      -0.521546       -14.1920
 107   2.0000      -0.516357       -14.0508
 108   2.0000      -0.514095       -13.9892
 109   2.0000      -0.508285       -13.8311
 110   2.0000      -0.505731       -13.7616
 111   2.0000      -0.502352       -13.6697
 112   2.0000      -0.497316       -13.5327
 113   2.0000      -0.485676       -13.2159
 114   2.0000      -0.481784       -13.1100
 115   2.0000      -0.476153       -12.9568
 116   2.0000      -0.469673       -12.7804
 117   2.0000      -0.467679       -12.7262
 118   2.0000      -0.466335       -12.6896
 119   2.0000      -0.465648       -12.6709
 120   2.0000      -0.461112       -12.5475
 121   2.0000      -0.455201       -12.3867
 122   2.0000      -0.451403       -12.2833
 123   2.0000      -0.447776       -12.1846
 124   2.0000      -0.441261       -12.0073
 125   2.0000      -0.436992       -11.8912
 126   2.0000      -0.431503       -11.7418
 127   2.0000      -0.429657       -11.6916
 128   2.0000      -0.415129       -11.2962
 129   2.0000      -0.405002       -11.0207
 130   2.0000      -0.390412       -10.6236
 131   2.0000      -0.382372       -10.4049
 132   2.0000      -0.380187       -10.3454
 133   2.0000      -0.371435       -10.1072
 134   2.0000      -0.368092       -10.0163
 135   2.0000      -0.356897        -9.7117
 136   2.0000      -0.349279        -9.5044
 137   2.0000      -0.344145        -9.3647
 138   2.0000      -0.328974        -8.9518
 139   2.0000      -0.310037        -8.4365
 140   2.0000      -0.295405        -8.0384
 141   2.0000      -0.281850        -7.6695
 142   2.0000      -0.265106        -7.2139
 143   0.0000      -0.016701        -0.4545
 144   0.0000      -0.000354        -0.0096
 145   0.0000       0.030422         0.8278
 146   0.0000       0.046627         1.2688
 147   0.0000       0.061860         1.6833

MULLIKEN ATOMIC CHARGES
-----------------------
   0 C :   -0.159320
   1 C :   -0.216612
   2 C :   -0.045583
   3 C :    0.172387
   4 C :   -0.229907
   5 C :   -0.087906
   6 C :   -0.017128
   7 C :    0.176877
   8 N :   -0.302237
   9 C :   -0.239308
  10 C :   -0.080048
  11 C :   -0.282078
  12 C :    0.203470
  13 H :    0.129951
  14 H :    0.236107
  15 H :    0.123972
  16 H :    0.209998
  17 H :    0.114403
  18 H :    0.122136
  19 H :    0.119532
  20 N :   -0.340058
  21 C :    0.104201
  22 C :   -0.199752
  23 S :    0.058339
  24 C :    0.210447
  25 C :    0.105018
  26 S :    0.068176
  27 C :    0.040800
  28 C :   -0.219373
  29 N :   -0.275198
  30 H :    0.183002
  31 H :    0.188171
  32 C :   -0.258527
  33 C :    0.196445
  34 C :   -0.109114
  35 S :    0.059735
  36 C :   -0.169664
  37 C :    0.063699
  38 C :    0.025145
  39 C :    0.132656
  40 O :   -0.288127
  41 C :   -0.230021
  42 C :   -0.046581
  43 S :    0.093784
  44 C :   -0.359069
  45 H :    0.144384
  46 H :    0.163254
  47 H :    0.130819
  48 H :    0.123087
  49 H :    0.140210
  50 C :   -0.359039
  51 H :    0.139224
  52 H :    0.114021
  53 H :    0.140455
  54 H :    0.114872
  55 H :    0.165872
Sum of atomic charges:   -0.0000000

LOEWDIN ATOMIC CHARGES
----------------------
   0 C :   -0.158604
   1 C :   -0.104855
   2 C :   -0.081212
   3 C :   -0.145428
   4 C :   -0.133239
   5 C :   -0.142381
   6 C :   -0.041506
   7 C :   -0.143922
   8 N :    0.200039
   9 C :   -0.130055
  10 C :   -0.140949
  11 C :   -0.124963
  12 C :   -0.109822
  13 H :    0.146402
  14 H :    0.192887
  15 H :    0.146605
  16 H :    0.154531
  17 H :    0.142967
  18 H :    0.144502
  19 H :    0.143978
  20 N :    0.125408
  21 C :   -0.285946
  22 C :   -0.341035
  23 S :    0.694068
  24 C :   -0.415027
  25 C :   -0.393184
  26 S :    0.749668
  27 C :   -0.322931
  28 C :   -0.233550
  29 N :    0.107091
  30 H :    0.140372
  31 H :    0.147733
  32 C :   -0.173420
  33 C :   -0.258300
  34 C :   -0.360737
  35 S :    0.693523
  36 C :   -0.368742
  37 C :   -0.323738
  38 C :   -0.124234
  39 C :   -0.286710
  40 O :    0.279847
  41 C :   -0.124616
  42 C :   -0.358912
  43 S :    0.773718
  44 C :   -0.245149
  45 H :    0.148034
  46 H :    0.148000
  47 H :    0.124998
  48 H :    0.126804
  49 H :    0.129818
  50 C :   -0.245794
  51 H :    0.128181
  52 H :    0.125407
  53 H :    0.129373
  54 H :    0.143520
  55 H :    0.131484

  Mayer bond orders larger than 0.1
B(  0-C ,  1-C ) :   1.5335 B(  0-C ,  5-C ) :   1.3602 B(  0-C , 19-H ) :   0.9850
B(  1-C ,  2-C ) :   1.2852 B(  1-C , 16-H ) :   0.9174 B(  2-C ,  3-C ) :   1.3719
B(  2-C ,  6-C ) :   1.0605 B(  3-C ,  4-C ) :   1.3073 B(  3-C ,  8-N ) :   1.1214
B(  4-C ,  5-C ) :   1.4834 B(  4-C , 17-H ) :   0.9774 B(  5-C , 18-H ) :   0.9807
B(  6-C ,  7-C ) :   1.3347 B(  6-C , 12-C ) :   1.2201 B(  7-C ,  8-N ) :   1.1497
B(  7-C ,  9-C ) :   1.2827 B(  8-N , 14-H ) :   0.9128 B(  9-C , 10-C ) :   1.4649
B(  9-C , 54-H ) :   0.9787 B( 10-C , 11-C ) :   1.4029 B( 10-C , 15-H ) :   0.9828
B( 11-C , 12-C ) :   1.4304 B( 11-C , 13-H ) :   0.9628 B( 12-C , 27-C ) :   0.8354
B( 20-N , 21-C ) :   1.2085 B( 20-N , 24-C ) :   1.6647 B( 21-C , 22-C ) :   1.7021
B( 21-C , 25-C ) :   0.9971 B( 22-C , 23-S ) :   1.2630 B( 22-C , 30-H ) :   0.9126
B( 23-S , 24-C ) :   1.2571 B( 24-C , 42-C ) :   0.9793 B( 25-C , 26-S ) :   1.3398
B( 25-C , 29-N ) :   1.6192 B( 26-S , 27-C ) :   1.2660 B( 27-C , 28-C ) :   1.5770
B( 28-C , 29-N ) :   1.3189 B( 28-C , 31-H ) :   0.9737 B( 32-C , 33-C ) :   1.2609
B( 32-C , 35-S ) :   0.1259 B( 32-C , 36-C ) :   1.6954 B( 32-C , 45-H ) :   0.9607
B( 33-C , 34-C ) :   1.4292 B( 33-C , 40-O ) :   1.1662 B( 34-C , 35-S ) :   1.2748
B( 34-C , 37-C ) :   0.9275 B( 35-S , 36-C ) :   1.2630 B( 36-C , 55-H ) :   0.9412
B( 37-C , 38-C ) :   1.5091 B( 37-C , 43-S ) :   1.3325 B( 38-C , 39-C ) :   0.9746
B( 38-C , 41-C ) :   1.2772 B( 39-C , 40-O ) :   0.8712 B( 39-C , 44-C ) :   1.0104
B( 39-C , 50-C ) :   0.9599 B( 41-C , 42-C ) :   1.5658 B( 41-C , 46-H ) :   0.8937
B( 42-C , 43-S ) :   1.2773 B( 44-C , 47-H ) :   0.9725 B( 44-C , 48-H ) :   0.9632
B( 44-C , 49-H ) :   0.9646 B( 50-C , 51-H ) :   0.9743 B( 50-C , 52-H ) :   0.9606
B( 50-C , 53-H ) :   0.9802

Dispersion correction           -0.028348891
FINAL SINGLE POINT ENERGY     -2948.922134306930

DIPOLE MOMENT
-------------
                                X             Y             Z
Electronic contribution:      2.85967      -4.85199       4.42548
Nuclear contribution   :     -3.12544       4.60690      -4.30041
                        -----------------------------------------
Total Dipole Moment    :     -0.26577      -0.24509       0.12507
                        -----------------------------------------
Magnitude (a.u.)       :      0.38255
Magnitude (Debye)      :      0.97236

                             ****ORCA TERMINATED NORMALLY****
TOTAL RUN TIME: 0 days 0 hours 20 minutes 50 seconds 328 msec
