                         Program Version 4.0.0 -  RELEASE  -
|  1> #
|  2> !wB97X-D3 def2-TZVP def2/J RIJCOSX Grid5 FinalGrid6 TightSCF
|  3> %pal
|  4>  nprocs 24
|  5> end
|  6> %tddft
|  7>   Mode sTDDFT
|  8>   nroots 2
|  9>   Ethresh 10.0
| 10>   maxcore 5000
| 11>   triplets true
| 12> end
| 13> * xyz 0 1
| 14> C -4.89128075 1.71196062 2.54678163
| 15> C -4.20685821 0.91817080 1.63014087
| 16> C -4.94026694 0.09314832 0.75609202
| 17> C -6.36094314 0.11315225 0.83947267
| 18> C -7.05290132 0.90690891 1.76706347
| 19> C -6.29544033 1.70524832 2.62019288
| 20> C -4.60133192 -0.82534642 -0.31986737
| 21> C -5.84353462 -1.29593663 -0.84071287
| 22> N -6.88220918 -0.73545318 -0.12139387
| 23> C -5.93529487 -2.17270269 -1.93159883
| 24> C -4.74370117 -2.57776093 -2.52936095
| 25> C -3.50861931 -2.13191053 -2.04297332
| 26> C -3.39808596 -1.27266137 -0.93253158
| 27> H -2.59906971 -2.48240392 -2.52555584
| 28> H -7.86710692 -0.89419211 -0.29504426
| 29> H -4.76847921 -3.25058813 -3.38167086
| 30> H -3.12148854 0.93695317 1.59722437
| 31> H -8.13863941 0.90112114 1.81267096
| 32> H -6.79601847 2.33392278 3.35183811
| 33> H -4.32974242 2.34948481 3.22417825
| 34> S 2.67276806 0.27434168 1.23433721
| 35> C 4.08915526 0.28121241 0.14925598
| 36> N 3.77916653 -0.04604974 -1.09767259
| 37> N 2.45593824 -0.31671455 -1.28873443
| 38> C 1.72888282 -0.20036801 -0.18439214
| 39> C 0.30407691 -0.43403347 -0.12977546
| 40> N -0.41892104 -0.32192232 0.97700107
| 41> N -1.74538998 -0.59087199 0.78571718
| 42> C -2.05850224 -0.90529018 -0.46259973
| 43> S -0.64457375 -0.90429874 -1.54600443
| 44> C 7.92790557 1.28024343 1.67921615
| 45> N 6.86614234 1.27034356 2.48300461
| 46> C 5.65438003 0.94565817 1.95727050
| 47> C 5.43361688 0.61636987 0.61708964
| 48> C 6.57170560 0.62312098 -0.26286828
| 49> C 7.84271284 0.96421626 0.29164141
| 50> N 6.45158060 0.31365113 -1.59397641
| 51> C 7.56041379 0.34829709 -2.32168714
| 52> C 8.82757819 0.68840040 -1.76769238
| 53> N 8.97793710 0.99284604 -0.48497769
| 54> H 4.80973529 0.95038291 2.65553527
| 55> H 7.47440824 0.10239710 -3.38699808
| 56> H 9.72139148 0.70584115 -2.40254662
| 57> H -6.89855281 -2.51283316 -2.30115077
| 58> H 8.89725643 1.54364476 2.11696167
| 59> *
| 60> $new_job
| 61> #
| 62> !wB97X-D3 def2-TZVP def2/J RIJCOSX Grid5 FinalGrid6 TightSCF
| 63> %pal
| 64>  nprocs 24
| 65> end
| 66> %elprop
| 67>    dipole     true
| 68>    quadrupole true
| 69> end
| 70> %tddft
| 71>   Mode sTDDFT
| 72>   nroots 2
| 73>   Ethresh 10.0
| 74>   maxcore 5000
| 75> end
| 76> * xyz 0 1
| 77> C -4.89128075 1.71196062 2.54678163
| 78> C -4.20685821 0.91817080 1.63014087
| 79> C -4.94026694 0.09314832 0.75609202
| 80> C -6.36094314 0.11315225 0.83947267
| 81> C -7.05290132 0.90690891 1.76706347
| 82> C -6.29544033 1.70524832 2.62019288
| 83> C -4.60133192 -0.82534642 -0.31986737
| 84> C -5.84353462 -1.29593663 -0.84071287
| 85> N -6.88220918 -0.73545318 -0.12139387
| 86> C -5.93529487 -2.17270269 -1.93159883
| 87> C -4.74370117 -2.57776093 -2.52936095
| 88> C -3.50861931 -2.13191053 -2.04297332
| 89> C -3.39808596 -1.27266137 -0.93253158
| 90> H -2.59906971 -2.48240392 -2.52555584
| 91> H -7.86710692 -0.89419211 -0.29504426
| 92> H -4.76847921 -3.25058813 -3.38167086
| 93> H -3.12148854 0.93695317 1.59722437
| 94> H -8.13863941 0.90112114 1.81267096
| 95> H -6.79601847 2.33392278 3.35183811
| 96> H -4.32974242 2.34948481 3.22417825
| 97> S 2.67276806 0.27434168 1.23433721
| 98> C 4.08915526 0.28121241 0.14925598
| 99> N 3.77916653 -0.04604974 -1.09767259
|100> N 2.45593824 -0.31671455 -1.28873443
|101> C 1.72888282 -0.20036801 -0.18439214
|102> C 0.30407691 -0.43403347 -0.12977546
|103> N -0.41892104 -0.32192232 0.97700107
|104> N -1.74538998 -0.59087199 0.78571718
|105> C -2.05850224 -0.90529018 -0.46259973
|106> S -0.64457375 -0.90429874 -1.54600443
|107> C 7.92790557 1.28024343 1.67921615
|108> N 6.86614234 1.27034356 2.48300461
|109> C 5.65438003 0.94565817 1.95727050
|110> C 5.43361688 0.61636987 0.61708964
|111> C 6.57170560 0.62312098 -0.26286828
|112> C 7.84271284 0.96421626 0.29164141
|113> N 6.45158060 0.31365113 -1.59397641
|114> C 7.56041379 0.34829709 -2.32168714
|115> C 8.82757819 0.68840040 -1.76769238
|116> N 8.97793710 0.99284604 -0.48497769
|117> H 4.80973529 0.95038291 2.65553527
|118> H 7.47440824 0.10239710 -3.38699808
|119> H 9.72139148 0.70584115 -2.40254662
|120> H -6.89855281 -2.51283316 -2.30115077
|121> H 8.89725643 1.54364476 2.11696167
|122> *
|123>
|124>                          ****END OF INPUT****
 Total Charge           Charge          ....    0
 Multiplicity           Mult            ....    1
 Number of Electrons    NEL             ....  238
Dispersion correction           -0.020045447
FINAL SINGLE POINT ENERGY     -2118.116507714179

CARTESIAN COORDINATES (ANGSTROEM)
---------------------------------
  C     -4.891281    1.711961    2.546782
  C     -4.206858    0.918171    1.630141
  C     -4.940267    0.093148    0.756092
  C     -6.360943    0.113152    0.839473
  C     -7.052901    0.906909    1.767063
  C     -6.295440    1.705248    2.620193
  C     -4.601332   -0.825346   -0.319867
  C     -5.843535   -1.295937   -0.840713
  N     -6.882209   -0.735453   -0.121394
  C     -5.935295   -2.172703   -1.931599
  C     -4.743701   -2.577761   -2.529361
  C     -3.508619   -2.131911   -2.042973
  C     -3.398086   -1.272661   -0.932532
  H     -2.599070   -2.482404   -2.525556
  H     -7.867107   -0.894192   -0.295044
  H     -4.768479   -3.250588   -3.381671
  H     -3.121489    0.936953    1.597224
  H     -8.138639    0.901121    1.812671
  H     -6.796018    2.333923    3.351838
  H     -4.329742    2.349485    3.224178
  S      2.672768    0.274342    1.234337
  C      4.089155    0.281212    0.149256
  N      3.779167   -0.046050   -1.097673
  N      2.455938   -0.316715   -1.288734
  C      1.728883   -0.200368   -0.184392
  C      0.304077   -0.434033   -0.129775
  N     -0.418921   -0.321922    0.977001
  N     -1.745390   -0.590872    0.785717
  C     -2.058502   -0.905290   -0.462600
  S     -0.644574   -0.904299   -1.546004
  C      7.927906    1.280243    1.679216
  N      6.866142    1.270344    2.483005
  C      5.654380    0.945658    1.957270
  C      5.433617    0.616370    0.617090
  C      6.571706    0.623121   -0.262868
  C      7.842713    0.964216    0.291641
  N      6.451581    0.313651   -1.593976
  C      7.560414    0.348297   -2.321687
  C      8.827578    0.688400   -1.767692
  N      8.977937    0.992846   -0.484978
  H      4.809735    0.950383    2.655535
  H      7.474408    0.102397   -3.386998
  H      9.721391    0.705841   -2.402547
  H     -6.898553   -2.512833   -2.301151
  H      8.897256    1.543645    2.116962

 Multiplicity           Mult            ....    1
 Number of Electrons    NEL             ....  238
 Basis Dimension        Dim             .... 1107

ORBITAL ENERGIES
----------------

  NO   OCC          E(Eh)            E(eV)
   0   2.0000     -89.011165     -2422.1169
   1   2.0000     -89.009342     -2422.0673
   2   2.0000     -14.475115      -393.8879
   3   2.0000     -14.474244      -393.8642
   4   2.0000     -14.472058      -393.8047
   5   2.0000     -14.467931      -393.6924
   6   2.0000     -14.465894      -393.6370
   7   2.0000     -14.465828      -393.6352
   8   2.0000     -14.458386      -393.4327
   9   2.0000     -14.451330      -393.2407
  10   2.0000     -10.382473      -282.5215
  11   2.0000     -10.380593      -282.4703
  12   2.0000     -10.379681      -282.4455
  13   2.0000     -10.376577      -282.3610
  14   2.0000     -10.362568      -281.9798
  15   2.0000     -10.354056      -281.7482
  16   2.0000     -10.352443      -281.7043
  17   2.0000     -10.352235      -281.6986
  18   2.0000     -10.349393      -281.6213
  19   2.0000     -10.349283      -281.6183
  20   2.0000     -10.338115      -281.3144
  21   2.0000     -10.336217      -281.2628
  22   2.0000     -10.327360      -281.0218
  23   2.0000     -10.322336      -280.8850
  24   2.0000     -10.306659      -280.4585
  25   2.0000     -10.300951      -280.3031
  26   2.0000     -10.297560      -280.2109
  27   2.0000     -10.296542      -280.1831
  28   2.0000     -10.290306      -280.0135
  29   2.0000     -10.285624      -279.8861
  30   2.0000     -10.284665      -279.8600
  31   2.0000     -10.278770      -279.6996
  32   2.0000     -10.272041      -279.5165
  33   2.0000      -8.107431      -220.6144
  34   2.0000      -8.105558      -220.5635
  35   2.0000      -6.060487      -164.9142
  36   2.0000      -6.058654      -164.8644
  37   2.0000      -6.056671      -164.8104
  38   2.0000      -6.054711      -164.7571
  39   2.0000      -6.054496      -164.7512
  40   2.0000      -6.052659      -164.7012
  41   2.0000      -1.158821       -31.5331
  42   2.0000      -1.150808       -31.3151
  43   2.0000      -1.121304       -30.5122
  44   2.0000      -1.109361       -30.1873
  45   2.0000      -1.077537       -29.3213
  46   2.0000      -1.046185       -28.4681
  47   2.0000      -0.996249       -27.1093
  48   2.0000      -0.983912       -26.7736
  49   2.0000      -0.967223       -26.3195
  50   2.0000      -0.962491       -26.1907
  51   2.0000      -0.940281       -25.5864
  52   2.0000      -0.928564       -25.2675
  53   2.0000      -0.916350       -24.9352
  54   2.0000      -0.903200       -24.5773
  55   2.0000      -0.897328       -24.4175
  56   2.0000      -0.876480       -23.8502
  57   2.0000      -0.848354       -23.0849
  58   2.0000      -0.842667       -22.9301
  59   2.0000      -0.819562       -22.3014
  60   2.0000      -0.798990       -21.7416
  61   2.0000      -0.785924       -21.3861
  62   2.0000      -0.779005       -21.1978
  63   2.0000      -0.761718       -20.7274
  64   2.0000      -0.732456       -19.9311
  65   2.0000      -0.725623       -19.7452
  66   2.0000      -0.715872       -19.4799
  67   2.0000      -0.704161       -19.1612
  68   2.0000      -0.679644       -18.4941
  69   2.0000      -0.678305       -18.4576
  70   2.0000      -0.665596       -18.1118
  71   2.0000      -0.654950       -17.8221
  72   2.0000      -0.651045       -17.7158
  73   2.0000      -0.631636       -17.1877
  74   2.0000      -0.625487       -17.0204
  75   2.0000      -0.617797       -16.8111
  76   2.0000      -0.604024       -16.4363
  77   2.0000      -0.588776       -16.0214
  78   2.0000      -0.579565       -15.7708
  79   2.0000      -0.575955       -15.6725
  80   2.0000      -0.575050       -15.6479
  81   2.0000      -0.568315       -15.4646
  82   2.0000      -0.565971       -15.4009
  83   2.0000      -0.556738       -15.1496
  84   2.0000      -0.551812       -15.0156
  85   2.0000      -0.543802       -14.7976
  86   2.0000      -0.542169       -14.7532
  87   2.0000      -0.538291       -14.6476
  88   2.0000      -0.533007       -14.5039
  89   2.0000      -0.530841       -14.4449
  90   2.0000      -0.527048       -14.3417
  91   2.0000      -0.520764       -14.1707
  92   2.0000      -0.517561       -14.0836
  93   2.0000      -0.502461       -13.6727
  94   2.0000      -0.500413       -13.6169
  95   2.0000      -0.479393       -13.0449
  96   2.0000      -0.474282       -12.9059
  97   2.0000      -0.469753       -12.7826
  98   2.0000      -0.464584       -12.6420
  99   2.0000      -0.447525       -12.1778
 100   2.0000      -0.446124       -12.1396
 101   2.0000      -0.436941       -11.8898
 102   2.0000      -0.434988       -11.8366
 103   2.0000      -0.424549       -11.5526
 104   2.0000      -0.419975       -11.4281
 105   2.0000      -0.404693       -11.0123
 106   2.0000      -0.403117       -10.9694
 107   2.0000      -0.395996       -10.7756
 108   2.0000      -0.388337       -10.5672
 109   2.0000      -0.387698       -10.5498
 110   2.0000      -0.381273       -10.3750
 111   2.0000      -0.377070       -10.2606
 112   2.0000      -0.372845       -10.1456
 113   2.0000      -0.367632       -10.0038
 114   2.0000      -0.348389        -9.4801
 115   2.0000      -0.345496        -9.4014
 116   2.0000      -0.324190        -8.8217
 117   2.0000      -0.301827        -8.2131
 118   2.0000      -0.291853        -7.9417
 119   0.0000      -0.050667        -1.3787
 120   0.0000      -0.025504        -0.6940
 121   0.0000       0.007660         0.2084
 122   0.0000       0.011941         0.3249
 123   0.0000       0.035923         0.9775

MULLIKEN ATOMIC CHARGES
-----------------------
   0 C :   -0.174788
   1 C :   -0.127052
   2 C :   -0.031496
   3 C :    0.166134
   4 C :   -0.230874
   5 C :   -0.080184
   6 C :   -0.029840
   7 C :    0.186915
   8 N :   -0.302866
   9 C :   -0.226063
  10 C :   -0.097582
  11 C :   -0.281139
  12 C :    0.125040
  13 H :    0.129916
  14 H :    0.237058
  15 H :    0.127951
  16 H :    0.155567
  17 H :    0.113495
  18 H :    0.122601
  19 H :    0.119512
  20 S :    0.048213
  21 C :    0.112884
  22 N :   -0.061044
  23 N :   -0.208215
  24 C :    0.118401
  25 C :    0.121044
  26 N :   -0.169946
  27 N :   -0.190501
  28 C :    0.163877
  29 S :    0.065710
  30 C :   -0.030591
  31 N :   -0.264151
  32 C :   -0.027171
  33 C :   -0.015741
  34 C :    0.069718
  35 C :    0.130082
  36 N :   -0.216993
  37 C :   -0.025795
  38 C :    0.003393
  39 N :   -0.245289
  40 H :    0.145498
  41 H :    0.148072
  42 H :    0.146730
  43 H :    0.122281
  44 H :    0.157227
Sum of atomic charges:   -0.0000000

LOEWDIN ATOMIC CHARGES
----------------------
   0 C :   -0.157544
   1 C :   -0.091614
   2 C :   -0.078037
   3 C :   -0.144308
   4 C :   -0.135965
   5 C :   -0.138589
   6 C :   -0.027984
   7 C :   -0.142968
   8 N :    0.201803
   9 C :   -0.117232
  10 C :   -0.141124
  11 C :   -0.122839
  12 C :   -0.116369
  13 H :    0.145515
  14 H :    0.193716
  15 H :    0.148066
  16 H :    0.153859
  17 H :    0.142612
  18 H :    0.144671
  19 H :    0.144167
  20 S :    0.729191
  21 C :   -0.384218
  22 N :    0.065066
  23 N :    0.047361
  24 C :   -0.456861
  25 C :   -0.460655
  26 N :    0.045401
  27 N :    0.048089
  28 C :   -0.373024
  29 S :    0.740732
  30 C :   -0.135015
  31 N :    0.124986
  32 C :   -0.154320
  33 C :   -0.126218
  34 C :   -0.120556
  35 C :   -0.180362
  36 N :    0.196172
  37 C :   -0.180492
  38 C :   -0.192843
  39 N :    0.175174
  40 H :    0.143976
  41 H :    0.147098
  42 H :    0.144799
  43 H :    0.145997
  44 H :    0.150689

  Mayer bond orders larger than 0.1
B(  0-C ,  1-C ) :   1.5357 B(  0-C ,  5-C ) :   1.3533 B(  0-C , 19-H ) :   0.9858
B(  1-C ,  2-C ) :   1.2682 B(  1-C , 16-H ) :   0.9349 B(  2-C ,  3-C ) :   1.3571
B(  2-C ,  6-C ) :   1.0947 B(  3-C ,  4-C ) :   1.3084 B(  3-C ,  8-N ) :   1.1141
B(  4-C ,  5-C ) :   1.4876 B(  4-C , 17-H ) :   0.9745 B(  5-C , 18-H ) :   0.9802
B(  6-C ,  7-C ) :   1.3205 B(  6-C , 12-C ) :   1.2497 B(  7-C ,  8-N ) :   1.1552
B(  7-C ,  9-C ) :   1.2875 B(  8-N , 14-H ) :   0.9129 B(  9-C , 10-C ) :   1.4684
B(  9-C , 43-H ) :   0.9742 B( 10-C , 11-C ) :   1.4229 B( 10-C , 15-H ) :   0.9795
B( 11-C , 12-C ) :   1.4053 B( 11-C , 13-H ) :   0.9598 B( 12-C , 28-C ) :   0.9345
B( 20-S , 21-C ) :   1.2759 B( 20-S , 24-C ) :   1.3189 B( 21-C , 22-N ) :   1.7284
B( 21-C , 33-C ) :   0.9975 B( 22-N , 23-N ) :   1.1337 B( 23-N , 24-C ) :   1.6946
B( 24-C , 25-C ) :   0.9361 B( 25-C , 26-N ) :   1.7049 B( 25-C , 29-S ) :   1.3058
B( 26-N , 27-N ) :   1.1243 B( 27-N , 28-C ) :   1.6394 B( 28-C , 29-S ) :   1.2924
B( 30-C , 31-N ) :   1.6059 B( 30-C , 35-C ) :   1.2163 B( 30-C , 44-H ) :   0.9727
B( 31-N , 32-C ) :   1.3815 B( 32-C , 33-C ) :   1.4759 B( 32-C , 40-H ) :   0.9782
B( 33-C , 34-C ) :   1.1876 B( 34-C , 35-C ) :   1.3210 B( 34-C , 36-N ) :   1.3220
B( 35-C , 39-N ) :   1.2963 B( 36-N , 37-C ) :   1.6565 B( 37-C , 38-C ) :   1.2240
B( 37-C , 41-H ) :   0.9639 B( 38-C , 39-N ) :   1.6204 B( 38-C , 42-H ) :   0.9622

Dispersion correction           -0.020045447
FINAL SINGLE POINT ENERGY     -2118.116507638944

DIPOLE MOMENT
-------------
                                X             Y             Z
Electronic contribution:     17.51436      -1.40043      -1.58262
Nuclear contribution   :    -18.27808       1.12339       0.46195
                        -----------------------------------------
Total Dipole Moment    :     -0.76372      -0.27704      -1.12067
                        -----------------------------------------
Magnitude (a.u.)       :      1.38416
Magnitude (Debye)      :      3.51827

                             ****ORCA TERMINATED NORMALLY****
TOTAL RUN TIME: 0 days 0 hours 12 minutes 0 seconds 819 msec
