                         Program Version 4.0.0 -  RELEASE  -
|  1> #
|  2> !wB97X-D3 def2-TZVP def2/J RIJCOSX Grid5 FinalGrid6 TightSCF
|  3> %pal
|  4>  nprocs 24
|  5> end
|  6> %tddft
|  7>   Mode sTDDFT
|  8>   nroots 2
|  9>   Ethresh 10.0
| 10>   maxcore 5000
| 11>   triplets true
| 12> end
| 13> * xyz 0 1
| 14> C 4.52986588 1.69846119 0.00060234
| 15> C 3.70518855 0.60675460 -0.26127789
| 16> C 4.18665001 -0.43415514 -1.07659098
| 17> C 5.51768417 -0.34924285 -1.57360294
| 18> C 6.34707149 0.75355509 -1.31844204
| 19> C 5.82978441 1.77839468 -0.52933674
| 20> C 3.65700489 -1.71001006 -1.52979429
| 21> C 4.71216045 -2.34582886 -2.24424151
| 22> N 5.80860554 -1.50223929 -2.28237334
| 23> C 4.59900567 -3.64042973 -2.77442452
| 24> C 3.39788058 -4.31456685 -2.56055384
| 25> C 2.33807901 -3.70753504 -1.87265299
| 26> C 2.42448209 -2.39623363 -1.36982600
| 27> H 1.40658968 -4.25457857 -1.74941543
| 28> H 6.69891333 -1.71853265 -2.71352557
| 29> H 3.27368535 -5.32429140 -2.94224282
| 30> H 2.71297612 0.56242952 0.17803201
| 31> H 7.35846419 0.80062272 -1.71333413
| 32> H 6.44390402 2.64752151 -0.30910302
| 33> H 4.16385327 2.50543665 0.62932233
| 34> N -2.88218949 -0.04843376 1.24573696
| 35> C -2.13309112 -1.21317762 1.16483198
| 36> C -2.65669956 -2.29135143 1.86662664
| 37> S -4.13695343 -1.84563121 2.65885404
| 38> C -3.96095528 -0.20521111 1.98731067
| 39> C -0.90187128 -1.23167187 0.38680125
| 40> S 0.11354552 -2.68910680 0.24871311
| 41> C 1.24296207 -1.77898356 -0.75525696
| 42> C 0.76177809 -0.49268800 -0.91889924
| 43> N -0.42096004 -0.19644209 -0.28282537
| 44> H -2.23101668 -3.28508847 1.93383881
| 45> H 1.24044801 0.26258566 -1.53837789
| 46> C -4.98449723 0.79119053 2.30074783
| 47> N -5.98627583 0.35705887 3.08719936
| 48> C -6.98467531 1.21461013 3.43196284
| 49> C -7.03487420 2.53369614 3.01511158
| 50> C -5.99755752 3.03253581 2.18401556
| 51> C -4.94164056 2.14485888 1.81286645
| 52> N -6.01351040 4.33863831 1.74976224
| 53> C -5.00365511 4.71720566 0.97708543
| 54> C -3.95046312 3.83202119 0.60691197
| 55> N -3.91194920 2.56892554 1.01221679
| 56> H -7.77282082 0.80775015 4.07291780
| 57> H -4.99943978 5.75500277 0.62121561
| 58> H -3.13377192 4.18449436 -0.03367846
| 59> H 5.41991399 -4.10310935 -3.31477869
| 60> H -7.85172849 3.18478935 3.31437103
| 61> *
| 62> $new_job
| 63> #
| 64> !wB97X-D3 def2-TZVP def2/J RIJCOSX Grid5 FinalGrid6 TightSCF
| 65> %pal
| 66>  nprocs 24
| 67> end
| 68> %elprop
| 69>    dipole     true
| 70>    quadrupole true
| 71> end
| 72> %tddft
| 73>   Mode sTDDFT
| 74>   nroots 2
| 75>   Ethresh 10.0
| 76>   maxcore 5000
| 77> end
| 78> * xyz 0 1
| 79> C 4.52986588 1.69846119 0.00060234
| 80> C 3.70518855 0.60675460 -0.26127789
| 81> C 4.18665001 -0.43415514 -1.07659098
| 82> C 5.51768417 -0.34924285 -1.57360294
| 83> C 6.34707149 0.75355509 -1.31844204
| 84> C 5.82978441 1.77839468 -0.52933674
| 85> C 3.65700489 -1.71001006 -1.52979429
| 86> C 4.71216045 -2.34582886 -2.24424151
| 87> N 5.80860554 -1.50223929 -2.28237334
| 88> C 4.59900567 -3.64042973 -2.77442452
| 89> C 3.39788058 -4.31456685 -2.56055384
| 90> C 2.33807901 -3.70753504 -1.87265299
| 91> C 2.42448209 -2.39623363 -1.36982600
| 92> H 1.40658968 -4.25457857 -1.74941543
| 93> H 6.69891333 -1.71853265 -2.71352557
| 94> H 3.27368535 -5.32429140 -2.94224282
| 95> H 2.71297612 0.56242952 0.17803201
| 96> H 7.35846419 0.80062272 -1.71333413
| 97> H 6.44390402 2.64752151 -0.30910302
| 98> H 4.16385327 2.50543665 0.62932233
| 99> N -2.88218949 -0.04843376 1.24573696
|100> C -2.13309112 -1.21317762 1.16483198
|101> C -2.65669956 -2.29135143 1.86662664
|102> S -4.13695343 -1.84563121 2.65885404
|103> C -3.96095528 -0.20521111 1.98731067
|104> C -0.90187128 -1.23167187 0.38680125
|105> S 0.11354552 -2.68910680 0.24871311
|106> C 1.24296207 -1.77898356 -0.75525696
|107> C 0.76177809 -0.49268800 -0.91889924
|108> N -0.42096004 -0.19644209 -0.28282537
|109> H -2.23101668 -3.28508847 1.93383881
|110> H 1.24044801 0.26258566 -1.53837789
|111> C -4.98449723 0.79119053 2.30074783
|112> N -5.98627583 0.35705887 3.08719936
|113> C -6.98467531 1.21461013 3.43196284
|114> C -7.03487420 2.53369614 3.01511158
|115> C -5.99755752 3.03253581 2.18401556
|116> C -4.94164056 2.14485888 1.81286645
|117> N -6.01351040 4.33863831 1.74976224
|118> C -5.00365511 4.71720566 0.97708543
|119> C -3.95046312 3.83202119 0.60691197
|120> N -3.91194920 2.56892554 1.01221679
|121> H -7.77282082 0.80775015 4.07291780
|122> H -4.99943978 5.75500277 0.62121561
|123> H -3.13377192 4.18449436 -0.03367846
|124> H 5.41991399 -4.10310935 -3.31477869
|125> H -7.85172849 3.18478935 3.31437103
|126> *
|127>
|128>                          ****END OF INPUT****
 Total Charge           Charge          ....    0
 Multiplicity           Mult            ....    1
 Number of Electrons    NEL             ....  238
Dispersion correction           -0.021579934
FINAL SINGLE POINT ENERGY     -2086.078074864118

CARTESIAN COORDINATES (ANGSTROEM)
---------------------------------
  C      4.529866    1.698461    0.000602
  C      3.705189    0.606755   -0.261278
  C      4.186650   -0.434155   -1.076591
  C      5.517684   -0.349243   -1.573603
  C      6.347071    0.753555   -1.318442
  C      5.829784    1.778395   -0.529337
  C      3.657005   -1.710010   -1.529794
  C      4.712160   -2.345829   -2.244242
  N      5.808606   -1.502239   -2.282373
  C      4.599006   -3.640430   -2.774425
  C      3.397881   -4.314567   -2.560554
  C      2.338079   -3.707535   -1.872653
  C      2.424482   -2.396234   -1.369826
  H      1.406590   -4.254579   -1.749415
  H      6.698913   -1.718533   -2.713526
  H      3.273685   -5.324291   -2.942243
  H      2.712976    0.562430    0.178032
  H      7.358464    0.800623   -1.713334
  H      6.443904    2.647522   -0.309103
  H      4.163853    2.505437    0.629322
  N     -2.882189   -0.048434    1.245737
  C     -2.133091   -1.213178    1.164832
  C     -2.656700   -2.291351    1.866627
  S     -4.136953   -1.845631    2.658854
  C     -3.960955   -0.205211    1.987311
  C     -0.901871   -1.231672    0.386801
  S      0.113546   -2.689107    0.248713
  C      1.242962   -1.778984   -0.755257
  C      0.761778   -0.492688   -0.918899
  N     -0.420960   -0.196442   -0.282825
  H     -2.231017   -3.285088    1.933839
  H      1.240448    0.262586   -1.538378
  C     -4.984497    0.791191    2.300748
  N     -5.986276    0.357059    3.087199
  C     -6.984675    1.214610    3.431963
  C     -7.034874    2.533696    3.015112
  C     -5.997558    3.032536    2.184016
  C     -4.941641    2.144859    1.812866
  N     -6.013510    4.338638    1.749762
  C     -5.003655    4.717206    0.977085
  C     -3.950463    3.832021    0.606912
  N     -3.911949    2.568926    1.012217
  H     -7.772821    0.807750    4.072918
  H     -4.999440    5.755003    0.621216
  H     -3.133772    4.184494   -0.033678
  H      5.419914   -4.103109   -3.314779
  H     -7.851728    3.184789    3.314371

 Multiplicity           Mult            ....    1
 Number of Electrons    NEL             ....  238
 Basis Dimension        Dim             .... 1119

ORBITAL ENERGIES
----------------

  NO   OCC          E(Eh)            E(eV)
   0   2.0000     -88.992411     -2421.6066
   1   2.0000     -88.986457     -2421.4446
   2   2.0000     -14.468730      -393.7141
   3   2.0000     -14.457533      -393.4095
   4   2.0000     -14.452884      -393.2830
   5   2.0000     -14.446862      -393.1191
   6   2.0000     -14.432973      -392.7412
   7   2.0000     -14.424190      -392.5022
   8   2.0000     -10.361336      -281.9463
   9   2.0000     -10.359577      -281.8984
  10   2.0000     -10.357288      -281.8361
  11   2.0000     -10.350822      -281.6602
  12   2.0000     -10.348524      -281.5977
  13   2.0000     -10.347323      -281.5650
  14   2.0000     -10.342369      -281.4302
  15   2.0000     -10.335085      -281.2320
  16   2.0000     -10.335067      -281.2315
  17   2.0000     -10.329756      -281.0869
  18   2.0000     -10.326733      -281.0047
  19   2.0000     -10.326290      -280.9926
  20   2.0000     -10.325655      -280.9754
  21   2.0000     -10.311861      -280.6000
  22   2.0000     -10.310651      -280.5671
  23   2.0000     -10.306545      -280.4554
  24   2.0000     -10.296011      -280.1687
  25   2.0000     -10.290469      -280.0179
  26   2.0000     -10.290382      -280.0155
  27   2.0000     -10.289486      -279.9911
  28   2.0000     -10.286767      -279.9172
  29   2.0000     -10.284952      -279.8678
  30   2.0000     -10.283792      -279.8362
  31   2.0000     -10.282782      -279.8087
  32   2.0000     -10.275239      -279.6035
  33   2.0000      -8.088207      -220.0913
  34   2.0000      -8.083085      -219.9519
  35   2.0000      -6.041329      -164.3929
  36   2.0000      -6.037129      -164.2786
  37   2.0000      -6.036137      -164.2516
  38   2.0000      -6.035658      -164.2386
  39   2.0000      -6.032315      -164.1476
  40   2.0000      -6.030256      -164.0916
  41   2.0000      -1.114561       -30.3287
  42   2.0000      -1.105416       -30.0799
  43   2.0000      -1.090360       -29.6702
  44   2.0000      -1.073875       -29.2216
  45   2.0000      -1.063031       -28.9265
  46   2.0000      -1.036846       -28.2140
  47   2.0000      -0.977991       -26.6125
  48   2.0000      -0.965845       -26.2820
  49   2.0000      -0.932291       -25.3689
  50   2.0000      -0.922770       -25.1098
  51   2.0000      -0.920710       -25.0538
  52   2.0000      -0.911291       -24.7975
  53   2.0000      -0.900108       -24.4932
  54   2.0000      -0.887643       -24.1540
  55   2.0000      -0.867252       -23.5991
  56   2.0000      -0.848000       -23.0753
  57   2.0000      -0.840043       -22.8587
  58   2.0000      -0.827285       -22.5116
  59   2.0000      -0.808483       -21.9999
  60   2.0000      -0.785650       -21.3786
  61   2.0000      -0.768178       -20.9032
  62   2.0000      -0.759927       -20.6787
  63   2.0000      -0.729596       -19.8533
  64   2.0000      -0.717897       -19.5350
  65   2.0000      -0.715808       -19.4781
  66   2.0000      -0.702190       -19.1076
  67   2.0000      -0.695536       -18.9265
  68   2.0000      -0.669720       -18.2240
  69   2.0000      -0.655311       -17.8319
  70   2.0000      -0.649672       -17.6785
  71   2.0000      -0.646503       -17.5922
  72   2.0000      -0.641695       -17.4614
  73   2.0000      -0.626027       -17.0351
  74   2.0000      -0.620150       -16.8751
  75   2.0000      -0.612710       -16.6727
  76   2.0000      -0.598543       -16.2872
  77   2.0000      -0.578920       -15.7532
  78   2.0000      -0.570447       -15.5226
  79   2.0000      -0.565554       -15.3895
  80   2.0000      -0.563416       -15.3313
  81   2.0000      -0.558495       -15.1974
  82   2.0000      -0.557354       -15.1664
  83   2.0000      -0.548885       -14.9359
  84   2.0000      -0.541885       -14.7454
  85   2.0000      -0.538384       -14.6502
  86   2.0000      -0.533617       -14.5204
  87   2.0000      -0.532180       -14.4813
  88   2.0000      -0.528646       -14.3852
  89   2.0000      -0.521134       -14.1808
  90   2.0000      -0.510851       -13.9010
  91   2.0000      -0.509001       -13.8506
  92   2.0000      -0.506228       -13.7752
  93   2.0000      -0.492454       -13.4004
  94   2.0000      -0.487789       -13.2734
  95   2.0000      -0.474613       -12.9149
  96   2.0000      -0.468827       -12.7574
  97   2.0000      -0.467560       -12.7230
  98   2.0000      -0.464461       -12.6386
  99   2.0000      -0.450311       -12.2536
 100   2.0000      -0.449801       -12.2397
 101   2.0000      -0.443124       -12.0580
 102   2.0000      -0.438170       -11.9232
 103   2.0000      -0.433018       -11.7830
 104   2.0000      -0.423952       -11.5363
 105   2.0000      -0.394900       -10.7458
 106   2.0000      -0.384282       -10.4568
 107   2.0000      -0.381969       -10.3939
 108   2.0000      -0.380999       -10.3675
 109   2.0000      -0.379579       -10.3289
 110   2.0000      -0.375273       -10.2117
 111   2.0000      -0.367622       -10.0035
 112   2.0000      -0.363744        -9.8980
 113   2.0000      -0.352520        -9.5926
 114   2.0000      -0.340531        -9.2663
 115   2.0000      -0.332035        -9.0351
 116   2.0000      -0.305930        -8.3248
 117   2.0000      -0.295984        -8.0541
 118   2.0000      -0.278677        -7.5832
 119   0.0000      -0.039187        -1.0663
 120   0.0000      -0.003475        -0.0946
 121   0.0000       0.019692         0.5358
 122   0.0000       0.023463         0.6385
 123   0.0000       0.035844         0.9754

MULLIKEN ATOMIC CHARGES
-----------------------
   0 C :   -0.154256
   1 C :   -0.229294
   2 C :   -0.031800
   3 C :    0.166708
   4 C :   -0.225746
   5 C :   -0.091455
   6 C :   -0.017213
   7 C :    0.186007
   8 N :   -0.300677
   9 C :   -0.248508
  10 C :   -0.078201
  11 C :   -0.277349
  12 C :    0.201569
  13 H :    0.130212
  14 H :    0.236499
  15 H :    0.123825
  16 H :    0.210979
  17 H :    0.115299
  18 H :    0.122490
  19 H :    0.120965
  20 N :   -0.204791
  21 C :    0.066709
  22 C :   -0.215618
  23 S :    0.102148
  24 C :    0.169157
  25 C :    0.126609
  26 S :    0.001593
  27 C :    0.058941
  28 C :   -0.234276
  29 N :   -0.235411
  30 H :    0.170625
  31 H :    0.189466
  32 C :    0.174127
  33 N :   -0.324006
  34 C :   -0.020597
  35 C :   -0.199293
  36 C :    0.168183
  37 C :    0.039675
  38 N :   -0.245052
  39 C :    0.021251
  40 C :   -0.046294
  41 N :   -0.215082
  42 H :    0.139816
  43 H :    0.144612
  44 H :    0.145949
  45 H :    0.116254
  46 H :    0.145247
Sum of atomic charges:   -0.0000000

LOEWDIN ATOMIC CHARGES
----------------------
   0 C :   -0.157959
   1 C :   -0.104284
   2 C :   -0.081231
   3 C :   -0.145423
   4 C :   -0.133108
   5 C :   -0.141988
   6 C :   -0.041157
   7 C :   -0.143717
   8 N :    0.200293
   9 C :   -0.129710
  10 C :   -0.141204
  11 C :   -0.126460
  12 C :   -0.110479
  13 H :    0.145622
  14 H :    0.193060
  15 H :    0.146578
  16 H :    0.155080
  17 H :    0.143044
  18 H :    0.144612
  19 H :    0.144337
  20 N :    0.182318
  21 C :   -0.281119
  22 C :   -0.359883
  23 S :    0.725080
  24 C :   -0.374754
  25 C :   -0.384808
  26 S :    0.712218
  27 C :   -0.321101
  28 C :   -0.230260
  29 N :    0.127591
  30 H :    0.132278
  31 H :    0.148641
  32 C :   -0.167602
  33 N :    0.147170
  34 C :   -0.191339
  35 C :   -0.106560
  36 C :   -0.163935
  37 C :   -0.137621
  38 N :    0.166684
  39 C :   -0.186176
  40 C :   -0.191617
  41 N :    0.205168
  42 H :    0.144078
  43 H :    0.144517
  44 H :    0.146218
  45 H :    0.143719
  46 H :    0.155191

  Mayer bond orders larger than 0.1
B(  0-C ,  1-C ) :   1.5375 B(  0-C ,  5-C ) :   1.3582 B(  0-C , 19-H ) :   0.9839
B(  1-C ,  2-C ) :   1.2755 B(  1-C , 16-H ) :   0.9212 B(  2-C ,  3-C ) :   1.3699
B(  2-C ,  6-C ) :   1.0520 B(  3-C ,  4-C ) :   1.3076 B(  3-C ,  8-N ) :   1.1223
B(  4-C ,  5-C ) :   1.4847 B(  4-C , 17-H ) :   0.9765 B(  5-C , 18-H ) :   0.9810
B(  6-C ,  7-C ) :   1.3249 B(  6-C , 12-C ) :   1.2227 B(  7-C ,  8-N ) :   1.1513
B(  7-C ,  9-C ) :   1.2818 B(  8-N , 14-H ) :   0.9122 B(  9-C , 10-C ) :   1.4692
B(  9-C , 45-H ) :   0.9776 B( 10-C , 11-C ) :   1.4021 B( 10-C , 15-H ) :   0.9824
B( 11-C , 12-C ) :   1.4344 B( 11-C , 13-H ) :   0.9611 B( 12-C , 27-C ) :   0.8270
B( 20-N , 21-C ) :   1.2873 B( 20-N , 24-C ) :   1.6761 B( 21-C , 22-C ) :   1.6178
B( 21-C , 25-C ) :   1.0061 B( 22-C , 23-S ) :   1.3014 B( 22-C , 30-H ) :   0.9323
B( 23-S , 24-C ) :   1.2836 B( 24-C , 32-C ) :   0.9880 B( 25-C , 26-S ) :   1.3127
B( 25-C , 29-N ) :   1.6277 B( 26-S , 27-C ) :   1.2419 B( 26-S , 28-C ) :   0.1088
B( 27-C , 28-C ) :   1.5938 B( 28-C , 29-N ) :   1.3086 B( 28-C , 31-H ) :   0.9727
B( 32-C , 33-N ) :   1.4901 B( 32-C , 37-C ) :   1.2311 B( 32-C , 41-N ) :  -0.1071
B( 33-N , 34-C ) :   1.4009 B( 34-C , 35-C ) :   1.5359 B( 34-C , 42-H ) :   0.9809
B( 35-C , 36-C ) :   1.2871 B( 35-C , 46-H ) :   0.9550 B( 36-C , 37-C ) :   1.2773
B( 36-C , 38-N ) :   1.2922 B( 37-C , 41-N ) :   1.3294 B( 38-N , 39-C ) :   1.6198
B( 39-C , 40-C ) :   1.2183 B( 39-C , 43-H ) :   0.9615 B( 40-C , 41-N ) :   1.6640
B( 40-C , 44-H ) :   0.9680

Dispersion correction           -0.021579934
FINAL SINGLE POINT ENERGY     -2086.078074705226

DIPOLE MOMENT
-------------
                                X             Y             Z
Electronic contribution:    -18.16700      -4.96788       7.63696
Nuclear contribution   :     19.00009       4.95765      -8.06534
                        -----------------------------------------
Total Dipole Moment    :      0.83309      -0.01024      -0.42838
                        -----------------------------------------
Magnitude (a.u.)       :      0.93683
Magnitude (Debye)      :      2.38124

                             ****ORCA TERMINATED NORMALLY****
TOTAL RUN TIME: 0 days 0 hours 12 minutes 48 seconds 585 msec
