                         Program Version 4.0.0 -  RELEASE  -
|  1> #
|  2> !wB97X-D3 def2-TZVP def2/J RIJCOSX Grid5 FinalGrid6 TightSCF
|  3> %pal
|  4>  nprocs 24
|  5> end
|  6> %tddft
|  7>   Mode sTDDFT
|  8>   nroots 2
|  9>   Ethresh 10.0
| 10>   maxcore 5000
| 11>   triplets true
| 12> end
| 13> * xyz 0 1
| 14> C 5.17050926 -0.23574689 -2.93406290
| 15> C 4.49862204 -0.38416117 -1.72349688
| 16> C 5.23322244 -0.71091298 -0.56767175
| 17> C 6.64318797 -0.86660988 -0.68368371
| 18> C 7.32181651 -0.72454295 -1.90374152
| 19> C 6.56290459 -0.40764551 -3.02742187
| 20> C 4.90774017 -0.91626294 0.83527731
| 21> C 6.14834478 -1.16692938 1.49379518
| 22> N 7.17087012 -1.14988896 0.56385894
| 23> C 6.25549446 -1.36858504 2.87766573
| 24> C 5.08282471 -1.30067605 3.62699191
| 25> C 3.84993292 -1.05428335 3.01043702
| 26> C 3.72163794 -0.87579331 1.61933920
| 27> H 2.95396530 -1.02418002 3.62633075
| 28> H 8.15256312 -1.28722668 0.77068638
| 29> H 5.12053976 -1.44342429 4.70308508
| 30> H 3.42159844 -0.25186798 -1.67863555
| 31> H 8.39920239 -0.85227248 -1.96606598
| 32> H 7.05336413 -0.28918211 -3.99000293
| 33> H 4.60787951 0.01535291 -3.82909686
| 34> S -2.36400096 -0.10225182 -0.89267577
| 35> C -1.36177850 0.13113167 0.54889504
| 36> N -2.02370724 0.66216325 1.56864700
| 37> N -3.33211828 0.91186528 1.28324782
| 38> C -3.70641710 0.58300901 0.04952920
| 39> C 0.03713110 -0.22705513 0.58963422
| 40> N 0.68895833 -0.76191438 -0.43478605
| 41> N 2.00511040 -1.01659109 -0.16444118
| 42> C 2.38066621 -0.67804709 1.05966525
| 43> S 1.04640504 0.00540577 2.02298088
| 44> C -5.71330478 -0.26816870 -3.91417493
| 45> S -7.35932401 0.27144131 -3.64030015
| 46> C -6.96126721 0.74410827 -1.98675561
| 47> C -5.59147648 0.48094508 -1.68567434
| 48> C -4.91449291 -0.10030652 -2.82237957
| 49> C -5.08340152 0.79795385 -0.39167839
| 50> C -5.99938861 1.36608696 0.52722166
| 51> C -7.36152345 1.62012646 0.20576546
| 52> C -7.85120476 1.30445464 -1.07170129
| 53> S -5.65616328 1.85427253 2.18472274
| 54> C -7.32100273 2.38385730 2.41661971
| 55> C -8.08924009 2.20234744 1.30831164
| 56> H -3.86938681 -0.38672264 -2.83480812
| 57> H -9.14021856 2.46523007 1.25108004
| 58> H -7.65148319 2.80299148 3.35920245
| 59> H -5.41196392 -0.68403281 -4.86750602
| 60> H 7.21689015 -1.55920636 3.34618424
| 61> H -8.88881738 1.49194526 -1.33401346
| 62> *
| 63> $new_job
| 64> #
| 65> !wB97X-D3 def2-TZVP def2/J RIJCOSX Grid5 FinalGrid6 TightSCF
| 66> %pal
| 67>  nprocs 24
| 68> end
| 69> %elprop
| 70>    dipole     true
| 71>    quadrupole true
| 72> end
| 73> %tddft
| 74>   Mode sTDDFT
| 75>   nroots 2
| 76>   Ethresh 10.0
| 77>   maxcore 5000
| 78> end
| 79> * xyz 0 1
| 80> C 5.17050926 -0.23574689 -2.93406290
| 81> C 4.49862204 -0.38416117 -1.72349688
| 82> C 5.23322244 -0.71091298 -0.56767175
| 83> C 6.64318797 -0.86660988 -0.68368371
| 84> C 7.32181651 -0.72454295 -1.90374152
| 85> C 6.56290459 -0.40764551 -3.02742187
| 86> C 4.90774017 -0.91626294 0.83527731
| 87> C 6.14834478 -1.16692938 1.49379518
| 88> N 7.17087012 -1.14988896 0.56385894
| 89> C 6.25549446 -1.36858504 2.87766573
| 90> C 5.08282471 -1.30067605 3.62699191
| 91> C 3.84993292 -1.05428335 3.01043702
| 92> C 3.72163794 -0.87579331 1.61933920
| 93> H 2.95396530 -1.02418002 3.62633075
| 94> H 8.15256312 -1.28722668 0.77068638
| 95> H 5.12053976 -1.44342429 4.70308508
| 96> H 3.42159844 -0.25186798 -1.67863555
| 97> H 8.39920239 -0.85227248 -1.96606598
| 98> H 7.05336413 -0.28918211 -3.99000293
| 99> H 4.60787951 0.01535291 -3.82909686
|100> S -2.36400096 -0.10225182 -0.89267577
|101> C -1.36177850 0.13113167 0.54889504
|102> N -2.02370724 0.66216325 1.56864700
|103> N -3.33211828 0.91186528 1.28324782
|104> C -3.70641710 0.58300901 0.04952920
|105> C 0.03713110 -0.22705513 0.58963422
|106> N 0.68895833 -0.76191438 -0.43478605
|107> N 2.00511040 -1.01659109 -0.16444118
|108> C 2.38066621 -0.67804709 1.05966525
|109> S 1.04640504 0.00540577 2.02298088
|110> C -5.71330478 -0.26816870 -3.91417493
|111> S -7.35932401 0.27144131 -3.64030015
|112> C -6.96126721 0.74410827 -1.98675561
|113> C -5.59147648 0.48094508 -1.68567434
|114> C -4.91449291 -0.10030652 -2.82237957
|115> C -5.08340152 0.79795385 -0.39167839
|116> C -5.99938861 1.36608696 0.52722166
|117> C -7.36152345 1.62012646 0.20576546
|118> C -7.85120476 1.30445464 -1.07170129
|119> S -5.65616328 1.85427253 2.18472274
|120> C -7.32100273 2.38385730 2.41661971
|121> C -8.08924009 2.20234744 1.30831164
|122> H -3.86938681 -0.38672264 -2.83480812
|123> H -9.14021856 2.46523007 1.25108004
|124> H -7.65148319 2.80299148 3.35920245
|125> H -5.41196392 -0.68403281 -4.86750602
|126> H 7.21689015 -1.55920636 3.34618424
|127> H -8.88881738 1.49194526 -1.33401346
|128> *
|129>
|130>                          ****END OF INPUT****
 Total Charge           Charge          ....    0
 Multiplicity           Mult            ....    1
 Number of Electrons    NEL             ....  268
Dispersion correction           -0.023260718
FINAL SINGLE POINT ENERGY     -2865.215415635145

CARTESIAN COORDINATES (ANGSTROEM)
---------------------------------
  C      5.170509   -0.235747   -2.934063
  C      4.498622   -0.384161   -1.723497
  C      5.233222   -0.710913   -0.567672
  C      6.643188   -0.866610   -0.683684
  C      7.321817   -0.724543   -1.903742
  C      6.562905   -0.407646   -3.027422
  C      4.907740   -0.916263    0.835277
  C      6.148345   -1.166929    1.493795
  N      7.170870   -1.149889    0.563859
  C      6.255494   -1.368585    2.877666
  C      5.082825   -1.300676    3.626992
  C      3.849933   -1.054283    3.010437
  C      3.721638   -0.875793    1.619339
  H      2.953965   -1.024180    3.626331
  H      8.152563   -1.287227    0.770686
  H      5.120540   -1.443424    4.703085
  H      3.421598   -0.251868   -1.678636
  H      8.399202   -0.852272   -1.966066
  H      7.053364   -0.289182   -3.990003
  H      4.607880    0.015353   -3.829097
  S     -2.364001   -0.102252   -0.892676
  C     -1.361779    0.131132    0.548895
  N     -2.023707    0.662163    1.568647
  N     -3.332118    0.911865    1.283248
  C     -3.706417    0.583009    0.049529
  C      0.037131   -0.227055    0.589634
  N      0.688958   -0.761914   -0.434786
  N      2.005110   -1.016591   -0.164441
  C      2.380666   -0.678047    1.059665
  S      1.046405    0.005406    2.022981
  C     -5.713305   -0.268169   -3.914175
  S     -7.359324    0.271441   -3.640300
  C     -6.961267    0.744108   -1.986756
  C     -5.591476    0.480945   -1.685674
  C     -4.914493   -0.100307   -2.822380
  C     -5.083402    0.797954   -0.391678
  C     -5.999389    1.366087    0.527222
  C     -7.361523    1.620126    0.205765
  C     -7.851205    1.304455   -1.071701
  S     -5.656163    1.854273    2.184723
  C     -7.321003    2.383857    2.416620
  C     -8.089240    2.202347    1.308312
  H     -3.869387   -0.386723   -2.834808
  H     -9.140219    2.465230    1.251080
  H     -7.651483    2.802991    3.359202
  H     -5.411964   -0.684033   -4.867506
  H      7.216890   -1.559206    3.346184
  H     -8.888817    1.491945   -1.334013

 Multiplicity           Mult            ....    1
 Number of Electrons    NEL             ....  268
 Basis Dimension        Dim             .... 1187

ORBITAL ENERGIES
----------------

  NO   OCC          E(Eh)            E(eV)
   0   2.0000     -89.012826     -2422.1621
   1   2.0000     -89.009097     -2422.0607
   2   2.0000     -88.986190     -2421.4373
   3   2.0000     -88.974032     -2421.1065
   4   2.0000     -14.477513      -393.9532
   5   2.0000     -14.474752      -393.8780
   6   2.0000     -14.472141      -393.8070
   7   2.0000     -14.467961      -393.6932
   8   2.0000     -14.465702      -393.6318
   9   2.0000     -10.381556      -282.4965
  10   2.0000     -10.380795      -282.4758
  11   2.0000     -10.380360      -282.4640
  12   2.0000     -10.376322      -282.3541
  13   2.0000     -10.336129      -281.2604
  14   2.0000     -10.333731      -281.1951
  15   2.0000     -10.332859      -281.1714
  16   2.0000     -10.330991      -281.1205
  17   2.0000     -10.329852      -281.0896
  18   2.0000     -10.327372      -281.0221
  19   2.0000     -10.322303      -280.8842
  20   2.0000     -10.322198      -280.8813
  21   2.0000     -10.312776      -280.6249
  22   2.0000     -10.312331      -280.6128
  23   2.0000     -10.308919      -280.5199
  24   2.0000     -10.306563      -280.4558
  25   2.0000     -10.302784      -280.3530
  26   2.0000     -10.300786      -280.2986
  27   2.0000     -10.297426      -280.2072
  28   2.0000     -10.296374      -280.1786
  29   2.0000     -10.290790      -280.0266
  30   2.0000     -10.290332      -280.0142
  31   2.0000     -10.285690      -279.8879
  32   2.0000     -10.284744      -279.8621
  33   2.0000     -10.278827      -279.7011
  34   2.0000     -10.272144      -279.5192
  35   2.0000      -8.109010      -220.6574
  36   2.0000      -8.105325      -220.5571
  37   2.0000      -8.082980      -219.9491
  38   2.0000      -8.069561      -219.5839
  39   2.0000      -6.062109      -164.9584
  40   2.0000      -6.058407      -164.8576
  41   2.0000      -6.058297      -164.8546
  42   2.0000      -6.055968      -164.7913
  43   2.0000      -6.054496      -164.7512
  44   2.0000      -6.052401      -164.6942
  45   2.0000      -6.036582      -164.2638
  46   2.0000      -6.032433      -164.1508
  47   2.0000      -6.029334      -164.0665
  48   2.0000      -6.023424      -163.9057
  49   2.0000      -6.018730      -163.7780
  50   2.0000      -6.015924      -163.7016
  51   2.0000      -1.160155       -31.5694
  52   2.0000      -1.151519       -31.3344
  53   2.0000      -1.109293       -30.1854
  54   2.0000      -1.033083       -28.1116
  55   2.0000      -0.999577       -27.1999
  56   2.0000      -0.994962       -27.0743
  57   2.0000      -0.982146       -26.7256
  58   2.0000      -0.966074       -26.2882
  59   2.0000      -0.958867       -26.0921
  60   2.0000      -0.939062       -25.5532
  61   2.0000      -0.927200       -25.2304
  62   2.0000      -0.918871       -25.0038
  63   2.0000      -0.903391       -24.5825
  64   2.0000      -0.899842       -24.4859
  65   2.0000      -0.876501       -23.8508
  66   2.0000      -0.860107       -23.4047
  67   2.0000      -0.848342       -23.0846
  68   2.0000      -0.842635       -22.9293
  69   2.0000      -0.840220       -22.8635
  70   2.0000      -0.817511       -22.2456
  71   2.0000      -0.787991       -21.4423
  72   2.0000      -0.774375       -21.0718
  73   2.0000      -0.758749       -20.6466
  74   2.0000      -0.733061       -19.9476
  75   2.0000      -0.725702       -19.7473
  76   2.0000      -0.718936       -19.5632
  77   2.0000      -0.713812       -19.4238
  78   2.0000      -0.699900       -19.0452
  79   2.0000      -0.681203       -18.5365
  80   2.0000      -0.671782       -18.2801
  81   2.0000      -0.665374       -18.1058
  82   2.0000      -0.659336       -17.9414
  83   2.0000      -0.644961       -17.5503
  84   2.0000      -0.627252       -17.0684
  85   2.0000      -0.623409       -16.9638
  86   2.0000      -0.617853       -16.8126
  87   2.0000      -0.607978       -16.5439
  88   2.0000      -0.593009       -16.1366
  89   2.0000      -0.579282       -15.7631
  90   2.0000      -0.574512       -15.6333
  91   2.0000      -0.570403       -15.5215
  92   2.0000      -0.562270       -15.3001
  93   2.0000      -0.557083       -15.1590
  94   2.0000      -0.553603       -15.0643
  95   2.0000      -0.547468       -14.8974
  96   2.0000      -0.546162       -14.8618
  97   2.0000      -0.539679       -14.6854
  98   2.0000      -0.538388       -14.6503
  99   2.0000      -0.531546       -14.4641
 100   2.0000      -0.529157       -14.3991
 101   2.0000      -0.526847       -14.3362
 102   2.0000      -0.520469       -14.1627
 103   2.0000      -0.518242       -14.1021
 104   2.0000      -0.513436       -13.9713
 105   2.0000      -0.486153       -13.2289
 106   2.0000      -0.486077       -13.2268
 107   2.0000      -0.479236       -13.0407
 108   2.0000      -0.477219       -12.9858
 109   2.0000      -0.473844       -12.8939
 110   2.0000      -0.469847       -12.7852
 111   2.0000      -0.462827       -12.5942
 112   2.0000      -0.451854       -12.2956
 113   2.0000      -0.451025       -12.2730
 114   2.0000      -0.447769       -12.1844
 115   2.0000      -0.441618       -12.0170
 116   2.0000      -0.439166       -11.9503
 117   2.0000      -0.434177       -11.8145
 118   2.0000      -0.415676       -11.3111
 119   2.0000      -0.411760       -11.2045
 120   2.0000      -0.406696       -11.0668
 121   2.0000      -0.400432       -10.8963
 122   2.0000      -0.396591       -10.7918
 123   2.0000      -0.393082       -10.6963
 124   2.0000      -0.380582       -10.3562
 125   2.0000      -0.373496       -10.1633
 126   2.0000      -0.366329        -9.9683
 127   2.0000      -0.358359        -9.7515
 128   2.0000      -0.347274        -9.4498
 129   2.0000      -0.332495        -9.0477
 130   2.0000      -0.319360        -8.6902
 131   2.0000      -0.302392        -8.2285
 132   2.0000      -0.293157        -7.9772
 133   2.0000      -0.285523        -7.7695
 134   0.0000      -0.040372        -1.0986
 135   0.0000      -0.007725        -0.2102
 136   0.0000       0.019490         0.5304
 137   0.0000       0.037817         1.0291
 138   0.0000       0.048355         1.3158

MULLIKEN ATOMIC CHARGES
-----------------------
   0 C :   -0.174888
   1 C :   -0.131472
   2 C :   -0.020081
   3 C :    0.171770
   4 C :   -0.238610
   5 C :   -0.076861
   6 C :   -0.032831
   7 C :    0.188896
   8 N :   -0.303081
   9 C :   -0.224120
  10 C :   -0.100147
  11 C :   -0.273294
  12 C :    0.100816
  13 H :    0.129710
  14 H :    0.237347
  15 H :    0.127418
  16 H :    0.155732
  17 H :    0.113397
  18 H :    0.122873
  19 H :    0.118897
  20 S :    0.046511
  21 C :    0.106234
  22 N :   -0.229033
  23 N :   -0.127432
  24 C :    0.214254
  25 C :    0.125074
  26 N :   -0.175139
  27 N :   -0.188651
  28 C :    0.166569
  29 S :    0.066796
  30 C :   -0.120461
  31 S :    0.061104
  32 C :    0.008410
  33 C :    0.066406
  34 C :   -0.320384
  35 C :    0.096894
  36 C :   -0.100683
  37 C :    0.101438
  38 C :   -0.266066
  39 S :    0.110161
  40 C :   -0.164222
  41 C :   -0.221664
  42 H :    0.143172
  43 H :    0.128749
  44 H :    0.157902
  45 H :    0.169612
  46 H :    0.121903
  47 H :    0.131073
Sum of atomic charges:   -0.0000000

LOEWDIN ATOMIC CHARGES
----------------------
   0 C :   -0.157819
   1 C :   -0.091819
   2 C :   -0.077956
   3 C :   -0.144310
   4 C :   -0.136044
   5 C :   -0.138843
   6 C :   -0.028104
   7 C :   -0.142950
   8 N :    0.201760
   9 C :   -0.117232
  10 C :   -0.140952
  11 C :   -0.122711
  12 C :   -0.116342
  13 H :    0.145533
  14 H :    0.193705
  15 H :    0.148097
  16 H :    0.153857
  17 H :    0.142645
  18 H :    0.144630
  19 H :    0.143997
  20 S :    0.737687
  21 C :   -0.456670
  22 N :    0.050246
  23 N :    0.035641
  24 C :   -0.378860
  25 C :   -0.460869
  26 N :    0.043470
  27 N :    0.047891
  28 C :   -0.373177
  29 S :    0.740023
  30 C :   -0.353988
  31 S :    0.679102
  32 C :   -0.302220
  33 C :   -0.104871
  34 C :   -0.183180
  35 C :   -0.121879
  36 C :   -0.241680
  37 C :   -0.148241
  38 C :   -0.089242
  39 S :    0.708193
  40 C :   -0.358433
  41 C :   -0.173931
  42 H :    0.137924
  43 H :    0.144520
  44 H :    0.130619
  45 H :    0.133861
  46 H :    0.145981
  47 H :    0.152940

  Mayer bond orders larger than 0.1
B(  0-C ,  1-C ) :   1.5366 B(  0-C ,  5-C ) :   1.3526 B(  0-C , 19-H ) :   0.9856
B(  1-C ,  2-C ) :   1.2685 B(  1-C , 16-H ) :   0.9365 B(  2-C ,  3-C ) :   1.3558
B(  2-C ,  6-C ) :   1.0866 B(  3-C ,  4-C ) :   1.3042 B(  3-C ,  8-N ) :   1.1139
B(  4-C ,  5-C ) :   1.4858 B(  4-C , 17-H ) :   0.9750 B(  5-C , 18-H ) :   0.9801
B(  6-C ,  7-C ) :   1.3217 B(  6-C , 12-C ) :   1.2496 B(  7-C ,  8-N ) :   1.1545
B(  7-C ,  9-C ) :   1.2869 B(  8-N , 14-H ) :   0.9128 B(  9-C , 10-C ) :   1.4665
B(  9-C , 46-H ) :   0.9738 B( 10-C , 11-C ) :   1.4199 B( 10-C , 15-H ) :   0.9813
B( 11-C , 12-C ) :   1.4062 B( 11-C , 13-H ) :   0.9607 B( 12-C , 28-C ) :   0.9608
B( 20-S , 21-C ) :   1.3309 B( 20-S , 24-C ) :   1.2792 B( 21-C , 22-N ) :   1.6997
B( 21-C , 25-C ) :   0.9459 B( 22-N , 23-N ) :   1.1624 B( 23-N , 24-C ) :   1.6399
B( 24-C , 35-C ) :   0.9335 B( 24-C , 36-C ) :  -0.1003 B( 25-C , 26-N ) :   1.6965
B( 25-C , 29-S ) :   1.2991 B( 26-N , 27-N ) :   1.1246 B( 27-N , 28-C ) :   1.6436
B( 28-C , 29-S ) :   1.2892 B( 30-C , 31-S ) :   1.1756 B( 30-C , 34-C ) :   1.8269
B( 30-C , 45-H ) :   0.9331 B( 31-S , 32-C ) :   1.2343 B( 31-S , 34-C ) :   0.1688
B( 32-C , 33-C ) :   1.3243 B( 32-C , 38-C ) :   1.3464 B( 33-C , 34-C ) :   1.0777
B( 33-C , 35-C ) :   1.1944 B( 34-C , 42-H ) :   0.9420 B( 35-C , 36-C ) :   1.2390
B( 36-C , 37-C ) :   1.2456 B( 36-C , 39-S ) :   1.3232 B( 37-C , 38-C ) :   1.3261
B( 37-C , 41-C ) :   1.1238 B( 38-C , 47-H ) :   0.9673 B( 39-S , 40-C ) :   1.1912
B( 39-S , 41-C ) :   0.1103 B( 40-C , 41-C ) :   1.7842 B( 40-C , 44-H ) :   0.9439
B( 41-C , 43-H ) :   0.9663

Dispersion correction           -0.023260718
FINAL SINGLE POINT ENERGY     -2865.215415450964

DIPOLE MOMENT
-------------
                                X             Y             Z
Electronic contribution:    -20.36550       2.06108       3.17819
Nuclear contribution   :     21.14433      -2.13994      -3.09023
                        -----------------------------------------
Total Dipole Moment    :      0.77883      -0.07886       0.08796
                        -----------------------------------------
Magnitude (a.u.)       :      0.78774
Magnitude (Debye)      :      2.00227

                             ****ORCA TERMINATED NORMALLY****
TOTAL RUN TIME: 0 days 0 hours 13 minutes 35 seconds 770 msec
