                         Program Version 4.0.0 -  RELEASE  -
|  1> #
|  2> !wB97X-D3 def2-TZVP def2/J RIJCOSX Grid5 FinalGrid6 TightSCF
|  3> %pal
|  4>  nprocs 24
|  5> end
|  6> %tddft
|  7>   Mode sTDDFT
|  8>   nroots 2
|  9>   Ethresh 10.0
| 10>   maxcore 5000
| 11>   triplets true
| 12> end
| 13> * xyz 0 1
| 14> C -3.98856019 0.27273976 2.87138321
| 15> C -3.42972827 0.20552833 1.59716035
| 16> C -4.27106058 -0.02180304 0.49238646
| 17> C -5.67196807 -0.13702809 0.71607316
| 18> C -6.23614242 -0.07847618 1.99960118
| 19> C -5.37178143 0.12153192 3.07356339
| 20> C -4.07315412 -0.11474293 -0.94491582
| 21> C -5.37141328 -0.24177133 -1.51632356
| 22> N -6.31271980 -0.28073360 -0.50260365
| 23> C -5.59118651 -0.28455528 -2.90187528
| 24> C -4.47409885 -0.17724206 -3.72858143
| 25> C -3.18361191 -0.06483518 -3.19292092
| 26> C -2.94586795 -0.05961493 -1.80613233
| 27> H -2.33413563 -0.01100807 -3.86939331
| 28> H -7.31418064 -0.34872912 -0.63596332
| 29> H -4.60137080 -0.19188567 -4.80756939
| 30> H -2.36049848 0.34604926 1.46878088
| 31> H -7.30834320 -0.17522228 2.14819085
| 32> H -5.77305642 0.17405079 4.08213846
| 33> H -3.34421405 0.44787150 3.72847452
| 34> N 3.16049429 0.00947936 -0.01917827
| 35> C 2.29731480 0.55639846 -0.95470446
| 36> C 2.89418299 1.42857586 -1.85532126
| 37> S 4.59558687 1.57449830 -1.52660860
| 38> C 4.40400128 0.43738541 -0.17664133
| 39> C 0.88522703 0.19920931 -0.93405428
| 40> S -0.28223819 0.86980364 -2.09992577
| 41> C -1.56420743 -0.04900731 -1.31030690
| 42> C -1.01663470 -0.78463410 -0.27503706
| 43> N 0.33583370 -0.64024040 -0.07065232
| 44> H 2.40264232 1.96040251 -2.66073055
| 45> H -1.58044276 -1.47949726 0.34346569
| 46> C 7.67939976 -0.83744400 2.38163688
| 47> C 6.39765695 -1.28883169 2.55620526
| 48> C 5.32411334 -0.86757360 1.71344845
| 49> C 5.51352879 0.02072091 0.67113251
| 50> C 6.85663426 0.53004515 0.44319218
| 51> C 7.95943062 0.09128163 1.31639831
| 52> N 7.13778571 1.38087127 -0.52538315
| 53> S 8.99371847 1.72565171 -0.39610090
| 54> N 9.16680326 0.57769678 1.07616343
| 55> H 6.17815820 -1.98976913 3.35768053
| 56> H 4.32577355 -1.25630426 1.89533298
| 57> H -6.59236086 -0.38097241 -3.31210823
| 58> H 8.48459036 -1.16786996 3.03162341
| 59> *
| 60> $new_job
| 61> #
| 62> !wB97X-D3 def2-TZVP def2/J RIJCOSX Grid5 FinalGrid6 TightSCF
| 63> %pal
| 64>  nprocs 24
| 65> end
| 66> %elprop
| 67>    dipole     true
| 68>    quadrupole true
| 69> end
| 70> %tddft
| 71>   Mode sTDDFT
| 72>   nroots 2
| 73>   Ethresh 10.0
| 74>   maxcore 5000
| 75> end
| 76> * xyz 0 1
| 77> C -3.98856019 0.27273976 2.87138321
| 78> C -3.42972827 0.20552833 1.59716035
| 79> C -4.27106058 -0.02180304 0.49238646
| 80> C -5.67196807 -0.13702809 0.71607316
| 81> C -6.23614242 -0.07847618 1.99960118
| 82> C -5.37178143 0.12153192 3.07356339
| 83> C -4.07315412 -0.11474293 -0.94491582
| 84> C -5.37141328 -0.24177133 -1.51632356
| 85> N -6.31271980 -0.28073360 -0.50260365
| 86> C -5.59118651 -0.28455528 -2.90187528
| 87> C -4.47409885 -0.17724206 -3.72858143
| 88> C -3.18361191 -0.06483518 -3.19292092
| 89> C -2.94586795 -0.05961493 -1.80613233
| 90> H -2.33413563 -0.01100807 -3.86939331
| 91> H -7.31418064 -0.34872912 -0.63596332
| 92> H -4.60137080 -0.19188567 -4.80756939
| 93> H -2.36049848 0.34604926 1.46878088
| 94> H -7.30834320 -0.17522228 2.14819085
| 95> H -5.77305642 0.17405079 4.08213846
| 96> H -3.34421405 0.44787150 3.72847452
| 97> N 3.16049429 0.00947936 -0.01917827
| 98> C 2.29731480 0.55639846 -0.95470446
| 99> C 2.89418299 1.42857586 -1.85532126
|100> S 4.59558687 1.57449830 -1.52660860
|101> C 4.40400128 0.43738541 -0.17664133
|102> C 0.88522703 0.19920931 -0.93405428
|103> S -0.28223819 0.86980364 -2.09992577
|104> C -1.56420743 -0.04900731 -1.31030690
|105> C -1.01663470 -0.78463410 -0.27503706
|106> N 0.33583370 -0.64024040 -0.07065232
|107> H 2.40264232 1.96040251 -2.66073055
|108> H -1.58044276 -1.47949726 0.34346569
|109> C 7.67939976 -0.83744400 2.38163688
|110> C 6.39765695 -1.28883169 2.55620526
|111> C 5.32411334 -0.86757360 1.71344845
|112> C 5.51352879 0.02072091 0.67113251
|113> C 6.85663426 0.53004515 0.44319218
|114> C 7.95943062 0.09128163 1.31639831
|115> N 7.13778571 1.38087127 -0.52538315
|116> S 8.99371847 1.72565171 -0.39610090
|117> N 9.16680326 0.57769678 1.07616343
|118> H 6.17815820 -1.98976913 3.35768053
|119> H 4.32577355 -1.25630426 1.89533298
|120> H -6.59236086 -0.38097241 -3.31210823
|121> H 8.48459036 -1.16786996 3.03162341
|122> *
|123>
|124>                          ****END OF INPUT****
 Total Charge           Charge          ....    0
 Multiplicity           Mult            ....    1
 Number of Electrons    NEL             ....  240
Dispersion correction           -0.021168479
FINAL SINGLE POINT ENERGY     -2390.772856472489

CARTESIAN COORDINATES (ANGSTROEM)
---------------------------------
  C     -3.988560    0.272740    2.871383
  C     -3.429728    0.205528    1.597160
  C     -4.271061   -0.021803    0.492386
  C     -5.671968   -0.137028    0.716073
  C     -6.236142   -0.078476    1.999601
  C     -5.371781    0.121532    3.073563
  C     -4.073154   -0.114743   -0.944916
  C     -5.371413   -0.241771   -1.516324
  N     -6.312720   -0.280734   -0.502604
  C     -5.591187   -0.284555   -2.901875
  C     -4.474099   -0.177242   -3.728581
  C     -3.183612   -0.064835   -3.192921
  C     -2.945868   -0.059615   -1.806132
  H     -2.334136   -0.011008   -3.869393
  H     -7.314181   -0.348729   -0.635963
  H     -4.601371   -0.191886   -4.807569
  H     -2.360498    0.346049    1.468781
  H     -7.308343   -0.175222    2.148191
  H     -5.773056    0.174051    4.082138
  H     -3.344214    0.447871    3.728475
  N      3.160494    0.009479   -0.019178
  C      2.297315    0.556398   -0.954704
  C      2.894183    1.428576   -1.855321
  S      4.595587    1.574498   -1.526609
  C      4.404001    0.437385   -0.176641
  C      0.885227    0.199209   -0.934054
  S     -0.282238    0.869804   -2.099926
  C     -1.564207   -0.049007   -1.310307
  C     -1.016635   -0.784634   -0.275037
  N      0.335834   -0.640240   -0.070652
  H      2.402642    1.960403   -2.660731
  H     -1.580443   -1.479497    0.343466
  C      7.679400   -0.837444    2.381637
  C      6.397657   -1.288832    2.556205
  C      5.324113   -0.867574    1.713448
  C      5.513529    0.020721    0.671133
  C      6.856634    0.530045    0.443192
  C      7.959431    0.091282    1.316398
  N      7.137786    1.380871   -0.525383
  S      8.993718    1.725652   -0.396101
  N      9.166803    0.577697    1.076163
  H      6.178158   -1.989769    3.357681
  H      4.325774   -1.256304    1.895333
  H     -6.592361   -0.380972   -3.312108
  H      8.484590   -1.167870    3.031623

 Multiplicity           Mult            ....    1
 Number of Electrons    NEL             ....  240
 Basis Dimension        Dim             .... 1088

ORBITAL ENERGIES
----------------

  NO   OCC          E(Eh)            E(eV)
   0   2.0000     -89.038169     -2422.8518
   1   2.0000     -88.995576     -2421.6927
   2   2.0000     -88.988532     -2421.5011
   3   2.0000     -14.491178      -394.3250
   4   2.0000     -14.489237      -394.2722
   5   2.0000     -14.469868      -393.7451
   6   2.0000     -14.435347      -392.8058
   7   2.0000     -14.427001      -392.5787
   8   2.0000     -10.367189      -282.1055
   9   2.0000     -10.360578      -281.9257
  10   2.0000     -10.359475      -281.8956
  11   2.0000     -10.358486      -281.8687
  12   2.0000     -10.337469      -281.2968
  13   2.0000     -10.333294      -281.1832
  14   2.0000     -10.330830      -281.1162
  15   2.0000     -10.327649      -281.0296
  16   2.0000     -10.327261      -281.0191
  17   2.0000     -10.324441      -280.9423
  18   2.0000     -10.319877      -280.8181
  19   2.0000     -10.319083      -280.7965
  20   2.0000     -10.318369      -280.7771
  21   2.0000     -10.313103      -280.6338
  22   2.0000     -10.312653      -280.6215
  23   2.0000     -10.297198      -280.2010
  24   2.0000     -10.291593      -280.0485
  25   2.0000     -10.291360      -280.0422
  26   2.0000     -10.290595      -280.0213
  27   2.0000     -10.287705      -279.9427
  28   2.0000     -10.285819      -279.8914
  29   2.0000     -10.284877      -279.8657
  30   2.0000     -10.284090      -279.8443
  31   2.0000     -10.276173      -279.6289
  32   2.0000      -8.126763      -221.1405
  33   2.0000      -8.091128      -220.1708
  34   2.0000      -8.085143      -220.0079
  35   2.0000      -6.082731      -165.5195
  36   2.0000      -6.076421      -165.3478
  37   2.0000      -6.071710      -165.2196
  38   2.0000      -6.044347      -164.4751
  39   2.0000      -6.040014      -164.3571
  40   2.0000      -6.038493      -164.3157
  41   2.0000      -6.038190      -164.3075
  42   2.0000      -6.034350      -164.2030
  43   2.0000      -6.032324      -164.1479
  44   2.0000      -1.106417       -30.1071
  45   2.0000      -1.099886       -29.9294
  46   2.0000      -1.089687       -29.6519
  47   2.0000      -1.069815       -29.1112
  48   2.0000      -1.012293       -27.5459
  49   2.0000      -0.985579       -26.8190
  50   2.0000      -0.979120       -26.6432
  51   2.0000      -0.966758       -26.3068
  52   2.0000      -0.923076       -25.1182
  53   2.0000      -0.920466       -25.0472
  54   2.0000      -0.911761       -24.8103
  55   2.0000      -0.901103       -24.5202
  56   2.0000      -0.883360       -24.0374
  57   2.0000      -0.869402       -23.6576
  58   2.0000      -0.867337       -23.6014
  59   2.0000      -0.847296       -23.0561
  60   2.0000      -0.840828       -22.8801
  61   2.0000      -0.824376       -22.4324
  62   2.0000      -0.780312       -21.2334
  63   2.0000      -0.767936       -20.8966
  64   2.0000      -0.751581       -20.4516
  65   2.0000      -0.733732       -19.9659
  66   2.0000      -0.720863       -19.6157
  67   2.0000      -0.718056       -19.5393
  68   2.0000      -0.713730       -19.4216
  69   2.0000      -0.701592       -19.0913
  70   2.0000      -0.679559       -18.4917
  71   2.0000      -0.669675       -18.2228
  72   2.0000      -0.645543       -17.5661
  73   2.0000      -0.635054       -17.2807
  74   2.0000      -0.621591       -16.9144
  75   2.0000      -0.614565       -16.7232
  76   2.0000      -0.611874       -16.6499
  77   2.0000      -0.606760       -16.5108
  78   2.0000      -0.599510       -16.3135
  79   2.0000      -0.582951       -15.8629
  80   2.0000      -0.571583       -15.5536
  81   2.0000      -0.563432       -15.3318
  82   2.0000      -0.558627       -15.2010
  83   2.0000      -0.557708       -15.1760
  84   2.0000      -0.549039       -14.9401
  85   2.0000      -0.541605       -14.7378
  86   2.0000      -0.538329       -14.6487
  87   2.0000      -0.533245       -14.5103
  88   2.0000      -0.530080       -14.4242
  89   2.0000      -0.528024       -14.3683
  90   2.0000      -0.521917       -14.2021
  91   2.0000      -0.511388       -13.9156
  92   2.0000      -0.506530       -13.7834
  93   2.0000      -0.503726       -13.7071
  94   2.0000      -0.492813       -13.4101
  95   2.0000      -0.485982       -13.2242
  96   2.0000      -0.475854       -12.9487
  97   2.0000      -0.470434       -12.8012
  98   2.0000      -0.470244       -12.7960
  99   2.0000      -0.465630       -12.6704
 100   2.0000      -0.458176       -12.4676
 101   2.0000      -0.452001       -12.2996
 102   2.0000      -0.446897       -12.1607
 103   2.0000      -0.443994       -12.0817
 104   2.0000      -0.438400       -11.9295
 105   2.0000      -0.434033       -11.8106
 106   2.0000      -0.413883       -11.2623
 107   2.0000      -0.399069       -10.8592
 108   2.0000      -0.393162       -10.6985
 109   2.0000      -0.385660       -10.4943
 110   2.0000      -0.381385       -10.3780
 111   2.0000      -0.378154       -10.2901
 112   2.0000      -0.369319       -10.0497
 113   2.0000      -0.363852        -9.9009
 114   2.0000      -0.359952        -9.7948
 115   2.0000      -0.350673        -9.5423
 116   2.0000      -0.326077        -8.8730
 117   2.0000      -0.305502        -8.3131
 118   2.0000      -0.296900        -8.0791
 119   2.0000      -0.280175        -7.6240
 120   0.0000      -0.058994        -1.6053
 121   0.0000      -0.004493        -0.1223
 122   0.0000       0.012162         0.3309
 123   0.0000       0.019124         0.5204
 124   0.0000       0.032410         0.8819

MULLIKEN ATOMIC CHARGES
-----------------------
   0 C :   -0.155066
   1 C :   -0.219960
   2 C :   -0.035338
   3 C :    0.163239
   4 C :   -0.224734
   5 C :   -0.092311
   6 C :   -0.027522
   7 C :    0.180121
   8 N :   -0.302253
   9 C :   -0.243560
  10 C :   -0.080374
  11 C :   -0.273028
  12 C :    0.216421
  13 H :    0.130013
  14 H :    0.236249
  15 H :    0.123991
  16 H :    0.211451
  17 H :    0.114268
  18 H :    0.123262
  19 H :    0.120905
  20 N :   -0.278605
  21 C :    0.050756
  22 C :   -0.222432
  23 S :    0.113368
  24 C :    0.258519
  25 C :    0.155871
  26 S :    0.005303
  27 C :    0.059425
  28 C :   -0.235756
  29 N :   -0.236467
  30 H :    0.169051
  31 H :    0.191811
  32 C :   -0.177190
  33 C :   -0.077161
  34 C :   -0.173938
  35 C :   -0.098780
  36 C :    0.184580
  37 C :    0.077130
  38 N :   -0.294172
  39 S :    0.187329
  40 N :   -0.215450
  41 H :    0.143629
  42 H :    0.180456
  43 H :    0.116909
  44 H :    0.150041
Sum of atomic charges:    0.0000000

LOEWDIN ATOMIC CHARGES
----------------------
   0 C :   -0.157620
   1 C :   -0.104549
   2 C :   -0.081378
   3 C :   -0.145239
   4 C :   -0.132785
   5 C :   -0.141599
   6 C :   -0.041133
   7 C :   -0.143580
   8 N :    0.200482
   9 C :   -0.129119
  10 C :   -0.140936
  11 C :   -0.126174
  12 C :   -0.110607
  13 H :    0.145563
  14 H :    0.193129
  15 H :    0.146627
  16 H :    0.154816
  17 H :    0.143131
  18 H :    0.144790
  19 H :    0.144392
  20 N :    0.159823
  21 C :   -0.283384
  22 C :   -0.364855
  23 S :    0.733324
  24 C :   -0.369653
  25 C :   -0.385809
  26 S :    0.714848
  27 C :   -0.320434
  28 C :   -0.230282
  29 N :    0.123597
  30 H :    0.132147
  31 H :    0.148941
  32 C :   -0.094148
  33 C :   -0.120530
  34 C :   -0.053816
  35 C :   -0.119918
  36 C :   -0.225911
  37 C :   -0.258790
  38 N :   -0.073924
  39 S :    0.507018
  40 N :   -0.055792
  41 H :    0.153816
  42 H :    0.165662
  43 H :    0.143896
  44 H :    0.155963

  Mayer bond orders larger than 0.1
B(  0-C ,  1-C ) :   1.5371 B(  0-C ,  5-C ) :   1.3591 B(  0-C , 19-H ) :   0.9826
B(  1-C ,  2-C ) :   1.2865 B(  1-C , 16-H ) :   0.9175 B(  2-C ,  3-C ) :   1.3787
B(  2-C ,  6-C ) :   1.0676 B(  3-C ,  4-C ) :   1.3107 B(  3-C ,  8-N ) :   1.1212
B(  4-C ,  5-C ) :   1.4846 B(  4-C , 17-H ) :   0.9752 B(  5-C , 18-H ) :   0.9810
B(  6-C ,  7-C ) :   1.3368 B(  6-C , 12-C ) :   1.2324 B(  7-C ,  8-N ) :   1.1478
B(  7-C ,  9-C ) :   1.2846 B(  8-N , 14-H ) :   0.9127 B(  9-C , 10-C ) :   1.4693
B(  9-C , 43-H ) :   0.9767 B( 10-C , 11-C ) :   1.4056 B( 10-C , 15-H ) :   0.9814
B( 11-C , 12-C ) :   1.4281 B( 11-C , 13-H ) :   0.9593 B( 12-C , 27-C ) :   0.8281
B( 20-N , 21-C ) :   1.2957 B( 20-N , 24-C ) :   1.6210 B( 21-C , 22-C ) :   1.6366
B( 21-C , 25-C ) :   0.9924 B( 22-C , 23-S ) :   1.2919 B( 22-C , 30-H ) :   0.9339
B( 23-S , 24-C ) :   1.2788 B( 24-C , 35-C ) :   0.9695 B( 25-C , 26-S ) :   1.3062
B( 25-C , 29-N ) :   1.6140 B( 26-S , 27-C ) :   1.2414 B( 26-S , 28-C ) :   0.1084
B( 27-C , 28-C ) :   1.5933 B( 28-C , 29-N ) :   1.3110 B( 28-C , 31-H ) :   0.9712
B( 32-C , 33-C ) :   1.6642 B( 32-C , 37-C ) :   1.1278 B( 32-C , 44-H ) :   0.9633
B( 33-C , 34-C ) :   1.1599 B( 33-C , 41-H ) :   0.9772 B( 34-C , 35-C ) :   1.6720
B( 34-C , 42-H ) :   0.9320 B( 35-C , 36-C ) :   1.0384 B( 36-C , 37-C ) :   1.0459
B( 36-C , 38-N ) :   1.6358 B( 37-C , 40-N ) :   1.7286 B( 38-N , 39-S ) :   1.0923
B( 38-N , 40-N ) :   0.1237 B( 39-S , 40-N ) :   1.1148

Dispersion correction           -0.021168479
FINAL SINGLE POINT ENERGY     -2390.772856507795

DIPOLE MOMENT
-------------
                                X             Y             Z
Electronic contribution:     30.97127       7.18350      -7.80643
Nuclear contribution   :    -32.18704      -7.32359       7.75576
                        -----------------------------------------
Total Dipole Moment    :     -1.21577      -0.14009      -0.05067
                        -----------------------------------------
Magnitude (a.u.)       :      1.22486
Magnitude (Debye)      :      3.11334

                             ****ORCA TERMINATED NORMALLY****
TOTAL RUN TIME: 0 days 0 hours 12 minutes 3 seconds 889 msec
