                         Program Version 4.0.0 -  RELEASE  -
|  1> #
|  2> !wB97X-D3 def2-TZVP def2/J RIJCOSX Grid5 FinalGrid6 TightSCF
|  3> %pal
|  4>  nprocs 24
|  5> end
|  6> %tddft
|  7>   Mode sTDDFT
|  8>   nroots 2
|  9>   Ethresh 10.0
| 10>   maxcore 5000
| 11>   triplets true
| 12> end
| 13> * xyz 0 1
| 14> C -4.38462992 2.99659060 -0.06091221
| 15> C -3.76326585 1.75039114 -0.05419696
| 16> C -4.55823372 0.58850784 -0.04215635
| 17> C -5.97372314 0.73703400 -0.04772265
| 18> C -6.60239967 1.99162251 -0.04734501
| 19> C -5.78528235 3.11922557 -0.05285397
| 20> C -4.29151772 -0.84159450 -0.05940393
| 21> C -5.56751293 -1.47876087 -0.09341406
| 22> N -6.55965467 -0.51649298 -0.06829804
| 23> C -5.72872840 -2.87022688 -0.16521190
| 24> C -4.57281709 -3.64611768 -0.22081512
| 25> C -3.30582257 -3.05039786 -0.19140535
| 26> C -3.12662233 -1.65702950 -0.09321743
| 27> H -2.42651922 -3.68985607 -0.22103516
| 28> H -7.55488313 -0.70097399 -0.09693286
| 29> H -4.65099191 -4.72762627 -0.28460794
| 30> H -2.67935315 1.68206924 -0.05449015
| 31> H -7.68571786 2.07775893 -0.04795811
| 32> H -6.23592054 4.10822825 -0.05308374
| 33> H -3.77546442 3.89636764 -0.06918788
| 34> S 3.06746971 0.67445924 0.37457389
| 35> C 2.06774229 -0.64852620 -0.24044172
| 36> N 2.76068021 -1.59046563 -0.86632495
| 37> N 4.10568970 -1.33037645 -0.89870325
| 38> C 4.45433323 -0.19105840 -0.30049873
| 39> C 0.63211139 -0.69041339 -0.07312163
| 40> N -0.06304901 0.24773929 0.55568059
| 41> N -1.40754401 -0.00591638 0.58911638
| 42> C -1.75994504 -1.13047676 -0.01417818
| 43> S -0.36734924 -2.01259880 -0.69139667
| 44> C 5.83478297 0.27643555 -0.22015074
| 45> C 6.14897399 1.49796245 0.42941181
| 46> C 7.46387529 1.97460739 0.52397021
| 47> C 8.50370496 1.22563996 -0.03861619
| 48> C 8.24242079 0.02129644 -0.68557322
| 49> C 6.92275263 -0.45958953 -0.78182727
| 50> O 5.13357980 2.21694267 0.97164651
| 51> O 6.72980059 -1.62666764 -1.41672944
| 52> H 9.04675752 -0.56005868 -1.12189521
| 53> H 5.46395114 3.02522676 1.38596230
| 54> H 5.77502827 -1.86568509 -1.42458989
| 55> H 7.66547643 2.91451035 1.02919508
| 56> H -6.71624934 -3.32238408 -0.18750009
| 57> H 9.52396634 1.59067779 0.03203923
| 58> *
| 59> $new_job
| 60> #
| 61> !wB97X-D3 def2-TZVP def2/J RIJCOSX Grid5 FinalGrid6 TightSCF
| 62> %pal
| 63>  nprocs 24
| 64> end
| 65> %elprop
| 66>    dipole     true
| 67>    quadrupole true
| 68> end
| 69> %tddft
| 70>   Mode sTDDFT
| 71>   nroots 2
| 72>   Ethresh 10.0
| 73>   maxcore 5000
| 74> end
| 75> * xyz 0 1
| 76> C -4.38462992 2.99659060 -0.06091221
| 77> C -3.76326585 1.75039114 -0.05419696
| 78> C -4.55823372 0.58850784 -0.04215635
| 79> C -5.97372314 0.73703400 -0.04772265
| 80> C -6.60239967 1.99162251 -0.04734501
| 81> C -5.78528235 3.11922557 -0.05285397
| 82> C -4.29151772 -0.84159450 -0.05940393
| 83> C -5.56751293 -1.47876087 -0.09341406
| 84> N -6.55965467 -0.51649298 -0.06829804
| 85> C -5.72872840 -2.87022688 -0.16521190
| 86> C -4.57281709 -3.64611768 -0.22081512
| 87> C -3.30582257 -3.05039786 -0.19140535
| 88> C -3.12662233 -1.65702950 -0.09321743
| 89> H -2.42651922 -3.68985607 -0.22103516
| 90> H -7.55488313 -0.70097399 -0.09693286
| 91> H -4.65099191 -4.72762627 -0.28460794
| 92> H -2.67935315 1.68206924 -0.05449015
| 93> H -7.68571786 2.07775893 -0.04795811
| 94> H -6.23592054 4.10822825 -0.05308374
| 95> H -3.77546442 3.89636764 -0.06918788
| 96> S 3.06746971 0.67445924 0.37457389
| 97> C 2.06774229 -0.64852620 -0.24044172
| 98> N 2.76068021 -1.59046563 -0.86632495
| 99> N 4.10568970 -1.33037645 -0.89870325
|100> C 4.45433323 -0.19105840 -0.30049873
|101> C 0.63211139 -0.69041339 -0.07312163
|102> N -0.06304901 0.24773929 0.55568059
|103> N -1.40754401 -0.00591638 0.58911638
|104> C -1.75994504 -1.13047676 -0.01417818
|105> S -0.36734924 -2.01259880 -0.69139667
|106> C 5.83478297 0.27643555 -0.22015074
|107> C 6.14897399 1.49796245 0.42941181
|108> C 7.46387529 1.97460739 0.52397021
|109> C 8.50370496 1.22563996 -0.03861619
|110> C 8.24242079 0.02129644 -0.68557322
|111> C 6.92275263 -0.45958953 -0.78182727
|112> O 5.13357980 2.21694267 0.97164651
|113> O 6.72980059 -1.62666764 -1.41672944
|114> H 9.04675752 -0.56005868 -1.12189521
|115> H 5.46395114 3.02522676 1.38596230
|116> H 5.77502827 -1.86568509 -1.42458989
|117> H 7.66547643 2.91451035 1.02919508
|118> H -6.71624934 -3.32238408 -0.18750009
|119> H 9.52396634 1.59067779 0.03203923
|120> *
|121>
|122>                          ****END OF INPUT****
 Total Charge           Charge          ....    0
 Multiplicity           Mult            ....    1
 Number of Electrons    NEL             ....  228
Dispersion correction           -0.019707883
FINAL SINGLE POINT ENERGY     -2066.858868913317

CARTESIAN COORDINATES (ANGSTROEM)
---------------------------------
  C     -4.384630    2.996591   -0.060912
  C     -3.763266    1.750391   -0.054197
  C     -4.558234    0.588508   -0.042156
  C     -5.973723    0.737034   -0.047723
  C     -6.602400    1.991623   -0.047345
  C     -5.785282    3.119226   -0.052854
  C     -4.291518   -0.841594   -0.059404
  C     -5.567513   -1.478761   -0.093414
  N     -6.559655   -0.516493   -0.068298
  C     -5.728728   -2.870227   -0.165212
  C     -4.572817   -3.646118   -0.220815
  C     -3.305823   -3.050398   -0.191405
  C     -3.126622   -1.657029   -0.093217
  H     -2.426519   -3.689856   -0.221035
  H     -7.554883   -0.700974   -0.096933
  H     -4.650992   -4.727626   -0.284608
  H     -2.679353    1.682069   -0.054490
  H     -7.685718    2.077759   -0.047958
  H     -6.235921    4.108228   -0.053084
  H     -3.775464    3.896368   -0.069188
  S      3.067470    0.674459    0.374574
  C      2.067742   -0.648526   -0.240442
  N      2.760680   -1.590466   -0.866325
  N      4.105690   -1.330376   -0.898703
  C      4.454333   -0.191058   -0.300499
  C      0.632111   -0.690413   -0.073122
  N     -0.063049    0.247739    0.555681
  N     -1.407544   -0.005916    0.589116
  C     -1.759945   -1.130477   -0.014178
  S     -0.367349   -2.012599   -0.691397
  C      5.834783    0.276436   -0.220151
  C      6.148974    1.497962    0.429412
  C      7.463875    1.974607    0.523970
  C      8.503705    1.225640   -0.038616
  C      8.242421    0.021296   -0.685573
  C      6.922753   -0.459590   -0.781827
  O      5.133580    2.216943    0.971647
  O      6.729801   -1.626668   -1.416729
  H      9.046758   -0.560059   -1.121895
  H      5.463951    3.025227    1.385962
  H      5.775028   -1.865685   -1.424590
  H      7.665476    2.914510    1.029195
  H     -6.716249   -3.322384   -0.187500
  H      9.523966    1.590678    0.032039

 Multiplicity           Mult            ....    1
 Number of Electrons    NEL             ....  228
 Basis Dimension        Dim             .... 1051

ORBITAL ENERGIES
----------------

  NO   OCC          E(Eh)            E(eV)
   0   2.0000     -89.008872     -2422.0545
   1   2.0000     -89.006964     -2422.0026
   2   2.0000     -19.293592      -525.0053
   3   2.0000     -19.258781      -524.0581
   4   2.0000     -14.475782      -393.9061
   5   2.0000     -14.473060      -393.8320
   6   2.0000     -14.472423      -393.8147
   7   2.0000     -14.471338      -393.7851
   8   2.0000     -14.463897      -393.5826
   9   2.0000     -10.383326      -282.5447
  10   2.0000     -10.378657      -282.4176
  11   2.0000     -10.375865      -282.3416
  12   2.0000     -10.375516      -282.3321
  13   2.0000     -10.374505      -282.3046
  14   2.0000     -10.370330      -282.1910
  15   2.0000     -10.335260      -281.2367
  16   2.0000     -10.326664      -281.0028
  17   2.0000     -10.321159      -280.8530
  18   2.0000     -10.317329      -280.7488
  19   2.0000     -10.306611      -280.4571
  20   2.0000     -10.305567      -280.4287
  21   2.0000     -10.299867      -280.2736
  22   2.0000     -10.296557      -280.1836
  23   2.0000     -10.295342      -280.1505
  24   2.0000     -10.291603      -280.0488
  25   2.0000     -10.289532      -279.9924
  26   2.0000     -10.285051      -279.8705
  27   2.0000     -10.284089      -279.8443
  28   2.0000     -10.283612      -279.8313
  29   2.0000     -10.278063      -279.6803
  30   2.0000     -10.271490      -279.5015
  31   2.0000      -8.104541      -220.5358
  32   2.0000      -8.103213      -220.4996
  33   2.0000      -6.057961      -164.8455
  34   2.0000      -6.056270      -164.7995
  35   2.0000      -6.053582      -164.7263
  36   2.0000      -6.052378      -164.6936
  37   2.0000      -6.051381      -164.6664
  38   2.0000      -6.050319      -164.6375
  39   2.0000      -1.212987       -33.0070
  40   2.0000      -1.183388       -32.2016
  41   2.0000      -1.157133       -31.4872
  42   2.0000      -1.149002       -31.2659
  43   2.0000      -1.108469       -30.1630
  44   2.0000      -0.996359       -27.1123
  45   2.0000      -0.989592       -26.9282
  46   2.0000      -0.976456       -26.5707
  47   2.0000      -0.964628       -26.2489
  48   2.0000      -0.951364       -25.8879
  49   2.0000      -0.935833       -25.4653
  50   2.0000      -0.916359       -24.9354
  51   2.0000      -0.902363       -24.5545
  52   2.0000      -0.881069       -23.9751
  53   2.0000      -0.874897       -23.8072
  54   2.0000      -0.864503       -23.5243
  55   2.0000      -0.847489       -23.0614
  56   2.0000      -0.841830       -22.9074
  57   2.0000      -0.790590       -21.5130
  58   2.0000      -0.775143       -21.0927
  59   2.0000      -0.762440       -20.7470
  60   2.0000      -0.750116       -20.4117
  61   2.0000      -0.729786       -19.8585
  62   2.0000      -0.724339       -19.7103
  63   2.0000      -0.715056       -19.4577
  64   2.0000      -0.706164       -19.2157
  65   2.0000      -0.689903       -18.7732
  66   2.0000      -0.670114       -18.2347
  67   2.0000      -0.661516       -18.0008
  68   2.0000      -0.645045       -17.5526
  69   2.0000      -0.627131       -17.0651
  70   2.0000      -0.624931       -17.0052
  71   2.0000      -0.617878       -16.8133
  72   2.0000      -0.614052       -16.7092
  73   2.0000      -0.602037       -16.3822
  74   2.0000      -0.579678       -15.7738
  75   2.0000      -0.577024       -15.7016
  76   2.0000      -0.572788       -15.5864
  77   2.0000      -0.563950       -15.3459
  78   2.0000      -0.559673       -15.2295
  79   2.0000      -0.552641       -15.0381
  80   2.0000      -0.550904       -14.9909
  81   2.0000      -0.548723       -14.9315
  82   2.0000      -0.538112       -14.6428
  83   2.0000      -0.536270       -14.5927
  84   2.0000      -0.530375       -14.4322
  85   2.0000      -0.526558       -14.3284
  86   2.0000      -0.519902       -14.1473
  87   2.0000      -0.518738       -14.1156
  88   2.0000      -0.515971       -14.0403
  89   2.0000      -0.511610       -13.9216
  90   2.0000      -0.494125       -13.4458
  91   2.0000      -0.478385       -13.0175
  92   2.0000      -0.476491       -12.9660
  93   2.0000      -0.472754       -12.8643
  94   2.0000      -0.468985       -12.7617
  95   2.0000      -0.457363       -12.4455
  96   2.0000      -0.448204       -12.1963
  97   2.0000      -0.446497       -12.1498
  98   2.0000      -0.436495       -11.8776
  99   2.0000      -0.432612       -11.7720
 100   2.0000      -0.426806       -11.6140
 101   2.0000      -0.419124       -11.4050
 102   2.0000      -0.402316       -10.9476
 103   2.0000      -0.400221       -10.8906
 104   2.0000      -0.393862       -10.7175
 105   2.0000      -0.385620       -10.4932
 106   2.0000      -0.381112       -10.3706
 107   2.0000      -0.373834       -10.1725
 108   2.0000      -0.366783        -9.9807
 109   2.0000      -0.342092        -9.3088
 110   2.0000      -0.318648        -8.6709
 111   2.0000      -0.312511        -8.5038
 112   2.0000      -0.300725        -8.1831
 113   2.0000      -0.290781        -7.9126
 114   0.0000      -0.031459        -0.8560
 115   0.0000       0.003972         0.1081
 116   0.0000       0.029833         0.8118
 117   0.0000       0.050124         1.3639
 118   0.0000       0.069345         1.8870

MULLIKEN ATOMIC CHARGES
-----------------------
   0 C :   -0.175489
   1 C :   -0.126143
   2 C :   -0.023322
   3 C :    0.164429
   4 C :   -0.233816
   5 C :   -0.079637
   6 C :   -0.029801
   7 C :    0.187185
   8 N :   -0.302883
   9 C :   -0.223531
  10 C :   -0.098339
  11 C :   -0.275028
  12 C :    0.138258
  13 H :    0.132067
  14 H :    0.236742
  15 H :    0.127703
  16 H :    0.157268
  17 H :    0.113112
  18 H :    0.122277
  19 H :    0.118325
  20 S :    0.115092
  21 C :    0.103808
  22 N :   -0.218407
  23 N :   -0.220770
  24 C :    0.287722
  25 C :    0.123044
  26 N :   -0.169547
  27 N :   -0.191704
  28 C :    0.139553
  29 S :    0.062031
  30 C :   -0.233427
  31 C :    0.273869
  32 C :   -0.272832
  33 C :   -0.058345
  34 C :   -0.291314
  35 C :    0.253851
  36 O :   -0.434329
  37 O :   -0.401167
  38 H :    0.136018
  39 H :    0.337911
  40 H :    0.361603
  41 H :    0.112859
  42 H :    0.121507
  43 H :    0.133596
Sum of atomic charges:   -0.0000000

LOEWDIN ATOMIC CHARGES
----------------------
   0 C :   -0.158146
   1 C :   -0.091624
   2 C :   -0.077919
   3 C :   -0.144503
   4 C :   -0.136271
   5 C :   -0.139242
   6 C :   -0.028215
   7 C :   -0.143035
   8 N :    0.201533
   9 C :   -0.117743
  10 C :   -0.141105
  11 C :   -0.122924
  12 C :   -0.116064
  13 H :    0.145539
  14 H :    0.193581
  15 H :    0.147993
  16 H :    0.154005
  17 H :    0.142547
  18 H :    0.144481
  19 H :    0.143848
  20 S :    0.764248
  21 C :   -0.462318
  22 N :    0.043579
  23 N :    0.006680
  24 C :   -0.376855
  25 C :   -0.459994
  26 N :    0.043652
  27 N :    0.047547
  28 C :   -0.374240
  29 S :    0.737027
  30 C :   -0.129714
  31 C :   -0.229494
  32 C :   -0.169536
  33 C :   -0.122180
  34 C :   -0.135370
  35 C :   -0.214350
  36 O :    0.091718
  37 O :    0.113524
  38 H :    0.152153
  39 H :    0.198662
  40 H :    0.180857
  41 H :    0.141984
  42 H :    0.145837
  43 H :    0.149848

  Mayer bond orders larger than 0.1
B(  0-C ,  1-C ) :   1.5354 B(  0-C ,  5-C ) :   1.3526 B(  0-C , 19-H ) :   0.9858
B(  1-C ,  2-C ) :   1.2735 B(  1-C , 16-H ) :   0.9340 B(  2-C ,  3-C ) :   1.3585
B(  2-C ,  6-C ) :   1.0919 B(  3-C ,  4-C ) :   1.3086 B(  3-C ,  8-N ) :   1.1156
B(  4-C ,  5-C ) :   1.4858 B(  4-C , 17-H ) :   0.9750 B(  5-C , 18-H ) :   0.9798
B(  6-C ,  7-C ) :   1.3223 B(  6-C , 12-C ) :   1.2497 B(  7-C ,  8-N ) :   1.1524
B(  7-C ,  9-C ) :   1.2904 B(  8-N , 14-H ) :   0.9124 B(  9-C , 10-C ) :   1.4686
B(  9-C , 42-H ) :   0.9720 B( 10-C , 11-C ) :   1.4195 B( 10-C , 15-H ) :   0.9804
B( 11-C , 12-C ) :   1.4024 B( 11-C , 13-H ) :   0.9579 B( 12-C , 28-C ) :   0.9463
B( 20-S , 21-C ) :   1.2985 B( 20-S , 24-C ) :   1.2998 B( 21-C , 22-N ) :   1.7089
B( 21-C , 25-C ) :   0.9604 B( 22-N , 23-N ) :   1.1621 B( 23-N , 24-C ) :   1.5657
B( 23-N , 40-H ) :   0.1068 B( 24-C , 30-C ) :   0.9485 B( 25-C , 26-N ) :   1.7057
B( 25-C , 29-S ) :   1.3008 B( 26-N , 27-N ) :   1.1181 B( 27-N , 28-C ) :   1.6455
B( 28-C , 29-S ) :   1.2876 B( 30-C , 31-C ) :   1.3022 B( 30-C , 35-C ) :   1.2164
B( 31-C , 32-C ) :   1.4259 B( 31-C , 36-O ) :   1.0911 B( 32-C , 33-C ) :   1.4103
B( 32-C , 41-H ) :   0.9604 B( 33-C , 34-C ) :   1.4452 B( 33-C , 43-H ) :   0.9715
B( 34-C , 35-C ) :   1.4228 B( 34-C , 38-H ) :   0.9776 B( 35-C , 37-O ) :   1.2216
B( 36-O , 39-H ) :   0.8666 B( 37-O , 40-H ) :   0.7865

Dispersion correction           -0.019707883
FINAL SINGLE POINT ENERGY     -2066.858868779111

DIPOLE MOMENT
-------------
                                X             Y             Z
Electronic contribution:      7.11480      -5.69564      -0.16953
Nuclear contribution   :     -7.90786       6.37259       0.56031
                        -----------------------------------------
Total Dipole Moment    :     -0.79305       0.67695       0.39078
                        -----------------------------------------
Magnitude (a.u.)       :      1.11351
Magnitude (Debye)      :      2.83031

                             ****ORCA TERMINATED NORMALLY****
TOTAL RUN TIME: 0 days 0 hours 10 minutes 15 seconds 374 msec
