                         Program Version 4.0.0 -  RELEASE  -
|  1> #
|  2> !wB97X-D3 def2-TZVP def2/J RIJCOSX Grid5 FinalGrid6 TightSCF
|  3> %pal
|  4>  nprocs 24
|  5> end
|  6> %tddft
|  7>   Mode sTDDFT
|  8>   nroots 2
|  9>   Ethresh 10.0
| 10>   maxcore 5000
| 11>   triplets true
| 12> end
| 13> * xyz 0 1
| 14> C 5.96959421 -2.59566843 -1.00692815
| 15> C 5.00042838 -1.70488376 -0.55274645
| 16> C 5.39928708 -0.43989541 -0.08003139
| 17> C 6.78458100 -0.11414849 -0.10787378
| 18> C 7.76369442 -1.01211845 -0.55964426
| 19> C 7.33470657 -2.25946869 -1.00548563
| 20> C 4.70911352 0.73428263 0.43236873
| 21> C 5.71852846 1.71588138 0.66105542
| 22> N 6.95417070 1.18081870 0.34991478
| 23> C 5.43648673 3.01424867 1.11137945
| 24> C 4.09962565 3.34161946 1.32585537
| 25> C 3.08575285 2.39745208 1.11752205
| 26> C 3.35639747 1.08352657 0.69120513
| 27> H 2.05511465 2.67909465 1.31610350
| 28> H 7.83747587 1.67209035 0.41193423
| 29> H 3.83616403 4.33868963 1.66689075
| 30> H 3.95455730 -1.99294208 -0.57324505
| 31> H 8.81566136 -0.73976248 -0.56663307
| 32> H 8.06380991 -2.98119922 -1.36380791
| 33> H 5.66590429 -3.57307074 -1.37125453
| 34> C -3.29418902 -1.39923692 -0.15954486
| 35> N -2.81877832 -2.63792918 0.01713556
| 36> O -1.48110363 -2.52325832 0.23387368
| 37> C -1.11571170 -1.23309981 0.17087699
| 38> C -2.22775119 -0.45589978 -0.08503629
| 39> C 0.28653824 -0.89065453 0.36425093
| 40> N 1.22271391 -1.81832485 0.61261677
| 41> O 2.40276644 -1.15455167 0.73323651
| 42> C 2.22169508 0.16324068 0.56140096
| 43> C 0.87909848 0.40462623 0.33094748
| 44> H 0.39678193 1.35257499 0.14190006
| 45> H -2.27360344 0.61737152 -0.19663894
| 46> C -4.71218750 -1.17196143 -0.53012026
| 47> C -5.54206931 -0.15709894 0.05750557
| 48> C -6.84919669 0.06581279 -0.48838180
| 49> C -7.31096689 -0.74669613 -1.55983611
| 50> C -6.52273253 -1.75855741 -2.06240972
| 51> C -5.22516497 -1.96340983 -1.55194934
| 52> C -7.68622775 1.08434545 0.05187911
| 53> C -7.26999743 1.84462278 1.12303518
| 54> C -6.01114392 1.60668502 1.71613761
| 55> C -5.17289860 0.62219791 1.20341617
| 56> O -3.99348413 0.37724279 1.83147475
| 57> H -5.69960612 2.17922791 2.58642907
| 58> H -6.88727653 -2.38989468 -2.86880020
| 59> H -4.59741210 -2.73921496 -1.98193942
| 60> H -7.91359955 2.61794669 1.53275328
| 61> H -8.66673688 1.24445251 -0.38809507
| 62> H -3.90461339 0.94417370 2.60876240
| 63> H 6.23000480 3.73760883 1.27602490
| 64> H -8.30410174 -0.56688771 -1.96478413
| 65> *
| 66> $new_job
| 67> #
| 68> !wB97X-D3 def2-TZVP def2/J RIJCOSX Grid5 FinalGrid6 TightSCF
| 69> %pal
| 70>  nprocs 24
| 71> end
| 72> %elprop
| 73>    dipole     true
| 74>    quadrupole true
| 75> end
| 76> %tddft
| 77>   Mode sTDDFT
| 78>   nroots 2
| 79>   Ethresh 10.0
| 80>   maxcore 5000
| 81> end
| 82> * xyz 0 1
| 83> C 5.96959421 -2.59566843 -1.00692815
| 84> C 5.00042838 -1.70488376 -0.55274645
| 85> C 5.39928708 -0.43989541 -0.08003139
| 86> C 6.78458100 -0.11414849 -0.10787378
| 87> C 7.76369442 -1.01211845 -0.55964426
| 88> C 7.33470657 -2.25946869 -1.00548563
| 89> C 4.70911352 0.73428263 0.43236873
| 90> C 5.71852846 1.71588138 0.66105542
| 91> N 6.95417070 1.18081870 0.34991478
| 92> C 5.43648673 3.01424867 1.11137945
| 93> C 4.09962565 3.34161946 1.32585537
| 94> C 3.08575285 2.39745208 1.11752205
| 95> C 3.35639747 1.08352657 0.69120513
| 96> H 2.05511465 2.67909465 1.31610350
| 97> H 7.83747587 1.67209035 0.41193423
| 98> H 3.83616403 4.33868963 1.66689075
| 99> H 3.95455730 -1.99294208 -0.57324505
|100> H 8.81566136 -0.73976248 -0.56663307
|101> H 8.06380991 -2.98119922 -1.36380791
|102> H 5.66590429 -3.57307074 -1.37125453
|103> C -3.29418902 -1.39923692 -0.15954486
|104> N -2.81877832 -2.63792918 0.01713556
|105> O -1.48110363 -2.52325832 0.23387368
|106> C -1.11571170 -1.23309981 0.17087699
|107> C -2.22775119 -0.45589978 -0.08503629
|108> C 0.28653824 -0.89065453 0.36425093
|109> N 1.22271391 -1.81832485 0.61261677
|110> O 2.40276644 -1.15455167 0.73323651
|111> C 2.22169508 0.16324068 0.56140096
|112> C 0.87909848 0.40462623 0.33094748
|113> H 0.39678193 1.35257499 0.14190006
|114> H -2.27360344 0.61737152 -0.19663894
|115> C -4.71218750 -1.17196143 -0.53012026
|116> C -5.54206931 -0.15709894 0.05750557
|117> C -6.84919669 0.06581279 -0.48838180
|118> C -7.31096689 -0.74669613 -1.55983611
|119> C -6.52273253 -1.75855741 -2.06240972
|120> C -5.22516497 -1.96340983 -1.55194934
|121> C -7.68622775 1.08434545 0.05187911
|122> C -7.26999743 1.84462278 1.12303518
|123> C -6.01114392 1.60668502 1.71613761
|124> C -5.17289860 0.62219791 1.20341617
|125> O -3.99348413 0.37724279 1.83147475
|126> H -5.69960612 2.17922791 2.58642907
|127> H -6.88727653 -2.38989468 -2.86880020
|128> H -4.59741210 -2.73921496 -1.98193942
|129> H -7.91359955 2.61794669 1.53275328
|130> H -8.66673688 1.24445251 -0.38809507
|131> H -3.90461339 0.94417370 2.60876240
|132> H 6.23000480 3.73760883 1.27602490
|133> H -8.30410174 -0.56688771 -1.96478413
|134> *
|135>
|136>                          ****END OF INPUT****
 Total Charge           Charge          ....    0
 Multiplicity           Mult            ....    1
 Number of Electrons    NEL             ....  230
Dispersion correction           -0.023201867
FINAL SINGLE POINT ENERGY     -1467.176050425234

CARTESIAN COORDINATES (ANGSTROEM)
---------------------------------
  C      5.969594   -2.595668   -1.006928
  C      5.000428   -1.704884   -0.552746
  C      5.399287   -0.439895   -0.080031
  C      6.784581   -0.114148   -0.107874
  C      7.763694   -1.012118   -0.559644
  C      7.334707   -2.259469   -1.005486
  C      4.709114    0.734283    0.432369
  C      5.718528    1.715881    0.661055
  N      6.954171    1.180819    0.349915
  C      5.436487    3.014249    1.111379
  C      4.099626    3.341619    1.325855
  C      3.085753    2.397452    1.117522
  C      3.356397    1.083527    0.691205
  H      2.055115    2.679095    1.316104
  H      7.837476    1.672090    0.411934
  H      3.836164    4.338690    1.666891
  H      3.954557   -1.992942   -0.573245
  H      8.815661   -0.739762   -0.566633
  H      8.063810   -2.981199   -1.363808
  H      5.665904   -3.573071   -1.371255
  C     -3.294189   -1.399237   -0.159545
  N     -2.818778   -2.637929    0.017136
  O     -1.481104   -2.523258    0.233874
  C     -1.115712   -1.233100    0.170877
  C     -2.227751   -0.455900   -0.085036
  C      0.286538   -0.890655    0.364251
  N      1.222714   -1.818325    0.612617
  O      2.402766   -1.154552    0.733237
  C      2.221695    0.163241    0.561401
  C      0.879098    0.404626    0.330947
  H      0.396782    1.352575    0.141900
  H     -2.273603    0.617372   -0.196639
  C     -4.712187   -1.171961   -0.530120
  C     -5.542069   -0.157099    0.057506
  C     -6.849197    0.065813   -0.488382
  C     -7.310967   -0.746696   -1.559836
  C     -6.522733   -1.758557   -2.062410
  C     -5.225165   -1.963410   -1.551949
  C     -7.686228    1.084345    0.051879
  C     -7.269997    1.844623    1.123035
  C     -6.011144    1.606685    1.716138
  C     -5.172899    0.622198    1.203416
  O     -3.993484    0.377243    1.831475
  H     -5.699606    2.179228    2.586429
  H     -6.887277   -2.389895   -2.868800
  H     -4.597412   -2.739215   -1.981939
  H     -7.913600    2.617947    1.532753
  H     -8.666737    1.244453   -0.388095
  H     -3.904613    0.944174    2.608762
  H      6.230005    3.737609    1.276025
  H     -8.304102   -0.566888   -1.964784

 Multiplicity           Mult            ....    1
 Number of Electrons    NEL             ....  230
 Basis Dimension        Dim             .... 1156

ORBITAL ENERGIES
----------------

  NO   OCC          E(Eh)            E(eV)
   0   2.0000     -19.335664      -526.1502
   1   2.0000     -19.322984      -525.8051
   2   2.0000     -19.274647      -524.4898
   3   2.0000     -14.478501      -393.9800
   4   2.0000     -14.472194      -393.8084
   5   2.0000     -14.469587      -393.7375
   6   2.0000     -10.366926      -282.0984
   7   2.0000     -10.361383      -281.9476
   8   2.0000     -10.359666      -281.9008
   9   2.0000     -10.341167      -281.3975
  10   2.0000     -10.335639      -281.2470
  11   2.0000     -10.328203      -281.0447
  12   2.0000     -10.326954      -281.0107
  13   2.0000     -10.319518      -280.8084
  14   2.0000     -10.312146      -280.6077
  15   2.0000     -10.310266      -280.5566
  16   2.0000     -10.305808      -280.4353
  17   2.0000     -10.305205      -280.4189
  18   2.0000     -10.299266      -280.2573
  19   2.0000     -10.298839      -280.2457
  20   2.0000     -10.296593      -280.1845
  21   2.0000     -10.294106      -280.1169
  22   2.0000     -10.293981      -280.1135
  23   2.0000     -10.293024      -280.0874
  24   2.0000     -10.292544      -280.0744
  25   2.0000     -10.292121      -280.0628
  26   2.0000     -10.291068      -280.0342
  27   2.0000     -10.290581      -280.0209
  28   2.0000     -10.290029      -280.0059
  29   2.0000     -10.286921      -279.9213
  30   2.0000     -10.285547      -279.8839
  31   2.0000     -10.284667      -279.8600
  32   2.0000     -10.282498      -279.8010
  33   2.0000     -10.273960      -279.5687
  34   2.0000      -1.284634       -34.9567
  35   2.0000      -1.271664       -34.6037
  36   2.0000      -1.195423       -32.5291
  37   2.0000      -1.109522       -30.1916
  38   2.0000      -1.011866       -27.5343
  39   2.0000      -1.002916       -27.2907
  40   2.0000      -0.985672       -26.8215
  41   2.0000      -0.976369       -26.5684
  42   2.0000      -0.966147       -26.2902
  43   2.0000      -0.943916       -25.6853
  44   2.0000      -0.935982       -25.4694
  45   2.0000      -0.911307       -24.7979
  46   2.0000      -0.903933       -24.5973
  47   2.0000      -0.893217       -24.3057
  48   2.0000      -0.873202       -23.7610
  49   2.0000      -0.869673       -23.6650
  50   2.0000      -0.848173       -23.0800
  51   2.0000      -0.842911       -22.9368
  52   2.0000      -0.840977       -22.8842
  53   2.0000      -0.777441       -21.1552
  54   2.0000      -0.767684       -20.8897
  55   2.0000      -0.761027       -20.7086
  56   2.0000      -0.747949       -20.3527
  57   2.0000      -0.736778       -20.0488
  58   2.0000      -0.732476       -19.9317
  59   2.0000      -0.722017       -19.6471
  60   2.0000      -0.716263       -19.4905
  61   2.0000      -0.706601       -19.2276
  62   2.0000      -0.700818       -19.0702
  63   2.0000      -0.673875       -18.3371
  64   2.0000      -0.664765       -18.0892
  65   2.0000      -0.644520       -17.5383
  66   2.0000      -0.630484       -17.1563
  67   2.0000      -0.627884       -17.0856
  68   2.0000      -0.617664       -16.8075
  69   2.0000      -0.609310       -16.5802
  70   2.0000      -0.606395       -16.5008
  71   2.0000      -0.602609       -16.3978
  72   2.0000      -0.596953       -16.2439
  73   2.0000      -0.585461       -15.9312
  74   2.0000      -0.582001       -15.8370
  75   2.0000      -0.567204       -15.4344
  76   2.0000      -0.565704       -15.3936
  77   2.0000      -0.559698       -15.2302
  78   2.0000      -0.558185       -15.1890
  79   2.0000      -0.549696       -14.9580
  80   2.0000      -0.540539       -14.7088
  81   2.0000      -0.537637       -14.6299
  82   2.0000      -0.534153       -14.5350
  83   2.0000      -0.531738       -14.4693
  84   2.0000      -0.528580       -14.3834
  85   2.0000      -0.525376       -14.2962
  86   2.0000      -0.522370       -14.2144
  87   2.0000      -0.508723       -13.8430
  88   2.0000      -0.500467       -13.6184
  89   2.0000      -0.496245       -13.5035
  90   2.0000      -0.491488       -13.3741
  91   2.0000      -0.482702       -13.1350
  92   2.0000      -0.474849       -12.9213
  93   2.0000      -0.472482       -12.8569
  94   2.0000      -0.470476       -12.8023
  95   2.0000      -0.469459       -12.7746
  96   2.0000      -0.447309       -12.1719
  97   2.0000      -0.446096       -12.1389
  98   2.0000      -0.444444       -12.0939
  99   2.0000      -0.442169       -12.0320
 100   2.0000      -0.437309       -11.8998
 101   2.0000      -0.430558       -11.7161
 102   2.0000      -0.425018       -11.5653
 103   2.0000      -0.410782       -11.1780
 104   2.0000      -0.399904       -10.8819
 105   2.0000      -0.393726       -10.7138
 106   2.0000      -0.390672       -10.6307
 107   2.0000      -0.372451       -10.1349
 108   2.0000      -0.355473        -9.6729
 109   2.0000      -0.339704        -9.2438
 110   2.0000      -0.338126        -9.2009
 111   2.0000      -0.330199        -8.9852
 112   2.0000      -0.302578        -8.2336
 113   2.0000      -0.291440        -7.9305
 114   2.0000      -0.289831        -7.8867
 115   0.0000       0.000245         0.0067
 116   0.0000       0.010735         0.2921
 117   0.0000       0.029882         0.8131
 118   0.0000       0.041685         1.1343
 119   0.0000       0.049490         1.3467

MULLIKEN ATOMIC CHARGES
-----------------------
   0 C :   -0.174383
   1 C :   -0.135362
   2 C :   -0.034739
   3 C :    0.165281
   4 C :   -0.241598
   5 C :   -0.074899
   6 C :   -0.027591
   7 C :    0.184220
   8 N :   -0.302334
   9 C :   -0.230054
  10 C :   -0.086556
  11 C :   -0.286577
  12 C :    0.071442
  13 H :    0.118005
  14 H :    0.237079
  15 H :    0.124774
  16 H :    0.154348
  17 H :    0.114375
  18 H :    0.122973
  19 H :    0.122992
  20 C :    0.248711
  21 N :   -0.148299
  22 O :   -0.108983
  23 C :    0.205821
  24 C :   -0.238439
  25 C :    0.147542
  26 N :   -0.162185
  27 O :   -0.130496
  28 C :    0.303895
  29 C :   -0.283531
  30 H :    0.162851
  31 H :    0.154055
  32 C :    0.116535
  33 C :   -0.084095
  34 C :    0.194181
  35 C :   -0.197972
  36 C :   -0.088465
  37 C :   -0.256132
  38 C :   -0.223754
  39 C :   -0.117410
  40 C :   -0.203957
  41 C :    0.120174
  42 O :   -0.419188
  43 H :    0.105169
  44 H :    0.125988
  45 H :    0.149189
  46 H :    0.124106
  47 H :    0.115742
  48 H :    0.327798
  49 H :    0.119250
  50 H :    0.120507
Sum of atomic charges:   -0.0000000

LOEWDIN ATOMIC CHARGES
----------------------
   0 C :   -0.155487
   1 C :   -0.095162
   2 C :   -0.080425
   3 C :   -0.144650
   4 C :   -0.134536
   5 C :   -0.138568
   6 C :   -0.033939
   7 C :   -0.143291
   8 N :    0.201684
   9 C :   -0.121722
  10 C :   -0.142056
  11 C :   -0.109760
  12 C :   -0.081605
  13 H :    0.149075
  14 H :    0.193729
  15 H :    0.147028
  16 H :    0.152972
  17 H :    0.143010
  18 H :    0.145039
  19 H :    0.145278
  20 C :   -0.208865
  21 N :    0.047465
  22 O :    0.309895
  23 C :   -0.226895
  24 C :   -0.116533
  25 C :   -0.227463
  26 N :    0.045456
  27 O :    0.308966
  28 C :   -0.200276
  29 C :   -0.122476
  30 H :    0.147925
  31 H :    0.147958
  32 C :   -0.064693
  33 C :   -0.034898
  34 C :   -0.085171
  35 C :   -0.095148
  36 C :   -0.134036
  37 C :   -0.085134
  38 C :   -0.120890
  39 C :   -0.142735
  40 C :   -0.153668
  41 C :   -0.222367
  42 O :    0.108219
  43 H :    0.141484
  44 H :    0.147954
  45 H :    0.157395
  46 H :    0.146484
  47 H :    0.147545
  48 H :    0.192916
  49 H :    0.145239
  50 H :    0.149732

  Mayer bond orders larger than 0.1
B(  0-C ,  1-C ) :   1.5346 B(  0-C ,  5-C ) :   1.3533 B(  0-C , 19-H ) :   0.9859
B(  1-C ,  2-C ) :   1.2676 B(  1-C , 16-H ) :   0.9356 B(  2-C ,  3-C ) :   1.3641
B(  2-C ,  6-C ) :   1.0706 B(  3-C ,  4-C ) :   1.3030 B(  3-C ,  8-N ) :   1.1171
B(  4-C ,  5-C ) :   1.4814 B(  4-C , 17-H ) :   0.9786 B(  5-C , 18-H ) :   0.9815
B(  6-C ,  7-C ) :   1.3230 B(  6-C , 12-C ) :   1.2474 B(  7-C ,  8-N ) :   1.1569
B(  7-C ,  9-C ) :   1.2833 B(  8-N , 14-H ) :   0.9120 B(  9-C , 10-C ) :   1.4611
B(  9-C , 49-H ) :   0.9762 B( 10-C , 11-C ) :   1.4116 B( 10-C , 15-H ) :   0.9832
B( 11-C , 12-C ) :   1.4371 B( 11-C , 13-H ) :   0.9740 B( 12-C , 28-C ) :   0.9598
B( 20-C , 21-N ) :   1.6491 B( 20-C , 24-C ) :   1.2790 B( 20-C , 32-C ) :   0.8270
B( 21-N , 22-O ) :   0.9893 B( 21-N , 23-C ) :   0.1095 B( 22-O , 23-C ) :   1.2149
B( 23-C , 24-C ) :   1.6112 B( 23-C , 25-C ) :   0.9617 B( 24-C , 31-H ) :   0.9353
B( 25-C , 26-N ) :   1.6616 B( 25-C , 29-C ) :   1.2819 B( 26-N , 27-O ) :   0.9812
B( 26-N , 28-C ) :   0.1246 B( 27-O , 28-C ) :   1.1713 B( 28-C , 29-C ) :   1.6127
B( 29-C , 30-H ) :   0.9234 B( 32-C , 33-C ) :   1.1578 B( 32-C , 37-C ) :   1.5519
B( 33-C , 34-C ) :   1.3305 B( 33-C , 41-C ) :   1.2397 B( 34-C , 35-C ) :   1.2113
B( 34-C , 38-C ) :   1.2237 B( 35-C , 36-C ) :   1.5186 B( 35-C , 50-H ) :   0.9837
B( 36-C , 37-C ) :   1.2774 B( 36-C , 44-H ) :   0.9929 B( 37-C , 45-H ) :   0.9584
B( 38-C , 39-C ) :   1.5582 B( 38-C , 47-H ) :   0.9836 B( 39-C , 40-C ) :   1.2842
B( 39-C , 46-H ) :   0.9794 B( 40-C , 41-C ) :   1.5122 B( 40-C , 43-H ) :   0.9650
B( 41-C , 42-O ) :   1.1726 B( 42-O , 48-H ) :   0.8706

Dispersion correction           -0.023201867
FINAL SINGLE POINT ENERGY     -1467.176050435951

DIPOLE MOMENT
-------------
                                X             Y             Z
Electronic contribution:      2.33574      -6.37282       2.45837
Nuclear contribution   :     -1.81799       9.19133      -2.33239
                        -----------------------------------------
Total Dipole Moment    :      0.51775       2.81851       0.12598
                        -----------------------------------------
Magnitude (a.u.)       :      2.86844
Magnitude (Debye)      :      7.29099

                             ****ORCA TERMINATED NORMALLY****
TOTAL RUN TIME: 0 days 0 hours 12 minutes 47 seconds 27 msec
