                         Program Version 4.0.0 -  RELEASE  -
|  1> #
|  2> !wB97X-D3 def2-TZVP def2/J RIJCOSX Grid5 FinalGrid6 TightSCF
|  3> %pal
|  4>  nprocs 24
|  5> end
|  6> %tddft
|  7>   Mode sTDDFT
|  8>   nroots 2
|  9>   Ethresh 10.0
| 10>   maxcore 5000
| 11>   triplets true
| 12> end
| 13> * xyz 0 1
| 14> C 8.43213253 3.61697595 -1.00370507
| 15> C 7.74336729 2.52866148 -0.47391710
| 16> C 8.47157992 1.42728023 0.01262084
| 17> C 9.89176260 1.46117828 -0.07628495
| 18> C 10.58899672 2.55904040 -0.60391168
| 19> C 9.83688042 3.63720772 -1.06355978
| 20> C 8.12253787 0.13975722 0.59216625
| 21> C 9.35598892 -0.54626253 0.79618881
| 22> N 10.40347527 0.27122832 0.40994069
| 23> C 9.42901481 -1.85459407 1.29564604
| 24> C 8.22752427 -2.50124709 1.57795112
| 25> C 7.00068678 -1.85283793 1.38496703
| 26> C 6.91325588 -0.53074963 0.91506324
| 27> H 6.07864528 -2.37548326 1.62409940
| 28> H 11.38385310 0.01946006 0.43750997
| 29> H 8.23988741 -3.51959707 1.95647285
| 30> H 6.65830983 2.53613173 -0.43942052
| 31> H 11.67444188 2.56319923 -0.65751648
| 32> H 10.34190633 4.50481819 -1.48003610
| 33> H 7.87469776 4.47070053 -1.37974198
| 34> C -0.17779245 -1.35946515 0.05699657
| 35> N 0.88296386 -0.53684867 0.29408775
| 36> C 2.11115996 -1.09234347 0.31684156
| 37> N 2.34233680 -2.41662507 0.11518611
| 38> C 1.24568974 -3.16274107 -0.12434521
| 39> N -0.01219123 -2.69438171 -0.16152020
| 40> C 3.27922986 -0.20404436 0.57761145
| 41> N 4.51329282 -0.75540238 0.60626160
| 42> C 5.56182995 0.07494158 0.83582296
| 43> N 5.40308723 1.40655876 1.05532249
| 44> C 4.14040133 1.87224699 1.01757820
| 45> N 3.05089832 1.12036852 0.77770349
| 46> H 3.99010360 2.94811298 1.19707043
| 47> H 1.39249637 -4.24027428 -0.30170776
| 48> C -5.21247200 -1.57591056 -0.32001011
| 49> C -6.42915741 -0.89538375 -0.37953965
| 50> C -6.48190946 0.50615984 -0.29094511
| 51> C -5.31343460 1.24987413 -0.13794184
| 52> C -4.04647674 0.58655250 -0.05205195
| 53> C -3.98482207 -0.84101496 -0.16935453
| 54> C -2.82220810 1.33071955 0.07387747
| 55> C -1.60778833 0.66691826 0.10516592
| 56> C -1.51922241 -0.75256766 0.02084940
| 57> C -2.70877572 -1.50231271 -0.08066107
| 58> N -2.64953908 -2.90335061 -0.18970219
| 59> C -2.68233304 -3.71068150 0.81469654
| 60> C -2.84040657 -3.25635975 2.25157928
| 61> N -2.87221861 2.72850757 0.28959993
| 62> C -2.24225437 3.58091862 -0.44884848
| 63> C -1.45871477 3.23042902 -1.69958220
| 64> N -5.39366527 2.64951308 0.04911307
| 65> C -5.83611604 3.46128150 -0.85153572
| 66> C -5.94410464 4.93140525 -0.52958890
| 67> N -5.19821533 -2.96601441 -0.57257449
| 68> C -5.90057664 -3.81875220 0.09800413
| 69> C -6.69707141 -3.49086862 1.34790236
| 70> C -5.92624867 -5.26133685 -0.34417780
| 71> C -2.56964972 -5.19511658 0.58277418
| 72> C -2.29643533 5.04496552 -0.08679829
| 73> C -6.23353684 3.05158613 -2.25706488
| 74> H -7.34584347 -1.45859197 -0.52905742
| 75> H -0.68864100 1.23330836 0.21993701
| 76> H -2.65347599 -5.43475958 -0.47297231
| 77> H -3.34036108 -5.73516823 1.13165275
| 78> H -1.60571303 -5.55801772 0.94161720
| 79> H -3.86229812 -3.44075058 2.58674596
| 80> H -2.17527893 -3.80916917 2.91214917
| 81> H -2.63764097 -2.19314025 2.35038635
| 82> H -5.62135610 -5.92338810 0.46635605
| 83> H -5.26914462 -5.42227070 -1.19350669
| 84> H -6.93758162 -5.55391325 -0.62881225
| 85> H -6.53199311 -4.24994903 2.11139616
| 86> H -7.76568033 -3.47930623 1.13223251
| 87> H -6.42121417 -2.51944969 1.74929044
| 88> H -6.96736227 5.28246121 -0.66424810
| 89> H -5.31528171 5.51748085 -1.20041302
| 90> H -5.63842611 5.13120604 0.49305150
| 91> H -5.80720919 3.73657025 -2.98842404
| 92> H -7.31692609 3.08875358 -2.37378873
| 93> H -5.90115161 2.04194320 -2.48236860
| 94> H -2.88019061 5.20381636 0.81505801
| 95> H -1.29282977 5.43966380 0.07259584
| 96> H -2.74167679 5.62509434 -0.89580896
| 97> H -1.63954520 3.96632326 -2.48155230
| 98> H -0.38821570 3.23383832 -1.49317136
| 99> H -1.72644816 2.24476838 -2.07090903
|100> H 10.38611419 -2.34732526 1.44416543
|101> H -7.43992630 1.01574060 -0.33942867
|102> *
|103> $new_job
|104> #
|105> !wB97X-D3 def2-TZVP def2/J RIJCOSX Grid5 FinalGrid6 TightSCF
|106> %pal
|107>  nprocs 24
|108> end
|109> %elprop
|110>    dipole     true
|111>    quadrupole true
|112> end
|113> %tddft
|114>   Mode sTDDFT
|115>   nroots 2
|116>   Ethresh 10.0
|117>   maxcore 5000
|118> end
|119> * xyz 0 1
|120> C 8.43213253 3.61697595 -1.00370507
|121> C 7.74336729 2.52866148 -0.47391710
|122> C 8.47157992 1.42728023 0.01262084
|123> C 9.89176260 1.46117828 -0.07628495
|124> C 10.58899672 2.55904040 -0.60391168
|125> C 9.83688042 3.63720772 -1.06355978
|126> C 8.12253787 0.13975722 0.59216625
|127> C 9.35598892 -0.54626253 0.79618881
|128> N 10.40347527 0.27122832 0.40994069
|129> C 9.42901481 -1.85459407 1.29564604
|130> C 8.22752427 -2.50124709 1.57795112
|131> C 7.00068678 -1.85283793 1.38496703
|132> C 6.91325588 -0.53074963 0.91506324
|133> H 6.07864528 -2.37548326 1.62409940
|134> H 11.38385310 0.01946006 0.43750997
|135> H 8.23988741 -3.51959707 1.95647285
|136> H 6.65830983 2.53613173 -0.43942052
|137> H 11.67444188 2.56319923 -0.65751648
|138> H 10.34190633 4.50481819 -1.48003610
|139> H 7.87469776 4.47070053 -1.37974198
|140> C -0.17779245 -1.35946515 0.05699657
|141> N 0.88296386 -0.53684867 0.29408775
|142> C 2.11115996 -1.09234347 0.31684156
|143> N 2.34233680 -2.41662507 0.11518611
|144> C 1.24568974 -3.16274107 -0.12434521
|145> N -0.01219123 -2.69438171 -0.16152020
|146> C 3.27922986 -0.20404436 0.57761145
|147> N 4.51329282 -0.75540238 0.60626160
|148> C 5.56182995 0.07494158 0.83582296
|149> N 5.40308723 1.40655876 1.05532249
|150> C 4.14040133 1.87224699 1.01757820
|151> N 3.05089832 1.12036852 0.77770349
|152> H 3.99010360 2.94811298 1.19707043
|153> H 1.39249637 -4.24027428 -0.30170776
|154> C -5.21247200 -1.57591056 -0.32001011
|155> C -6.42915741 -0.89538375 -0.37953965
|156> C -6.48190946 0.50615984 -0.29094511
|157> C -5.31343460 1.24987413 -0.13794184
|158> C -4.04647674 0.58655250 -0.05205195
|159> C -3.98482207 -0.84101496 -0.16935453
|160> C -2.82220810 1.33071955 0.07387747
|161> C -1.60778833 0.66691826 0.10516592
|162> C -1.51922241 -0.75256766 0.02084940
|163> C -2.70877572 -1.50231271 -0.08066107
|164> N -2.64953908 -2.90335061 -0.18970219
|165> C -2.68233304 -3.71068150 0.81469654
|166> C -2.84040657 -3.25635975 2.25157928
|167> N -2.87221861 2.72850757 0.28959993
|168> C -2.24225437 3.58091862 -0.44884848
|169> C -1.45871477 3.23042902 -1.69958220
|170> N -5.39366527 2.64951308 0.04911307
|171> C -5.83611604 3.46128150 -0.85153572
|172> C -5.94410464 4.93140525 -0.52958890
|173> N -5.19821533 -2.96601441 -0.57257449
|174> C -5.90057664 -3.81875220 0.09800413
|175> C -6.69707141 -3.49086862 1.34790236
|176> C -5.92624867 -5.26133685 -0.34417780
|177> C -2.56964972 -5.19511658 0.58277418
|178> C -2.29643533 5.04496552 -0.08679829
|179> C -6.23353684 3.05158613 -2.25706488
|180> H -7.34584347 -1.45859197 -0.52905742
|181> H -0.68864100 1.23330836 0.21993701
|182> H -2.65347599 -5.43475958 -0.47297231
|183> H -3.34036108 -5.73516823 1.13165275
|184> H -1.60571303 -5.55801772 0.94161720
|185> H -3.86229812 -3.44075058 2.58674596
|186> H -2.17527893 -3.80916917 2.91214917
|187> H -2.63764097 -2.19314025 2.35038635
|188> H -5.62135610 -5.92338810 0.46635605
|189> H -5.26914462 -5.42227070 -1.19350669
|190> H -6.93758162 -5.55391325 -0.62881225
|191> H -6.53199311 -4.24994903 2.11139616
|192> H -7.76568033 -3.47930623 1.13223251
|193> H -6.42121417 -2.51944969 1.74929044
|194> H -6.96736227 5.28246121 -0.66424810
|195> H -5.31528171 5.51748085 -1.20041302
|196> H -5.63842611 5.13120604 0.49305150
|197> H -5.80720919 3.73657025 -2.98842404
|198> H -7.31692609 3.08875358 -2.37378873
|199> H -5.90115161 2.04194320 -2.48236860
|200> H -2.88019061 5.20381636 0.81505801
|201> H -1.29282977 5.43966380 0.07259584
|202> H -2.74167679 5.62509434 -0.89580896
|203> H -1.63954520 3.96632326 -2.48155230
|204> H -0.38821570 3.23383832 -1.49317136
|205> H -1.72644816 2.24476838 -2.07090903
|206> H 10.38611419 -2.34732526 1.44416543
|207> H -7.43992630 1.01574060 -0.33942867
|208> *
|209>
|210>                          ****END OF INPUT****
 Total Charge           Charge          ....    0
 Multiplicity           Mult            ....    1
 Number of Electrons    NEL             ....  354
Dispersion correction           -0.050729604
FINAL SINGLE POINT ENERGY     -2148.935522399647

CARTESIAN COORDINATES (ANGSTROEM)
---------------------------------
  C      8.432133    3.616976   -1.003705
  C      7.743367    2.528661   -0.473917
  C      8.471580    1.427280    0.012621
  C      9.891763    1.461178   -0.076285
  C     10.588997    2.559040   -0.603912
  C      9.836880    3.637208   -1.063560
  C      8.122538    0.139757    0.592166
  C      9.355989   -0.546263    0.796189
  N     10.403475    0.271228    0.409941
  C      9.429015   -1.854594    1.295646
  C      8.227524   -2.501247    1.577951
  C      7.000687   -1.852838    1.384967
  C      6.913256   -0.530750    0.915063
  H      6.078645   -2.375483    1.624099
  H     11.383853    0.019460    0.437510
  H      8.239887   -3.519597    1.956473
  H      6.658310    2.536132   -0.439421
  H     11.674442    2.563199   -0.657516
  H     10.341906    4.504818   -1.480036
  H      7.874698    4.470701   -1.379742
  C     -0.177792   -1.359465    0.056997
  N      0.882964   -0.536849    0.294088
  C      2.111160   -1.092343    0.316842
  N      2.342337   -2.416625    0.115186
  C      1.245690   -3.162741   -0.124345
  N     -0.012191   -2.694382   -0.161520
  C      3.279230   -0.204044    0.577611
  N      4.513293   -0.755402    0.606262
  C      5.561830    0.074942    0.835823
  N      5.403087    1.406559    1.055322
  C      4.140401    1.872247    1.017578
  N      3.050898    1.120369    0.777703
  H      3.990104    2.948113    1.197070
  H      1.392496   -4.240274   -0.301708
  C     -5.212472   -1.575911   -0.320010
  C     -6.429157   -0.895384   -0.379540
  C     -6.481909    0.506160   -0.290945
  C     -5.313435    1.249874   -0.137942
  C     -4.046477    0.586552   -0.052052
  C     -3.984822   -0.841015   -0.169355
  C     -2.822208    1.330720    0.073877
  C     -1.607788    0.666918    0.105166
  C     -1.519222   -0.752568    0.020849
  C     -2.708776   -1.502313   -0.080661
  N     -2.649539   -2.903351   -0.189702
  C     -2.682333   -3.710681    0.814697
  C     -2.840407   -3.256360    2.251579
  N     -2.872219    2.728508    0.289600
  C     -2.242254    3.580919   -0.448848
  C     -1.458715    3.230429   -1.699582
  N     -5.393665    2.649513    0.049113
  C     -5.836116    3.461282   -0.851536
  C     -5.944105    4.931405   -0.529589
  N     -5.198215   -2.966014   -0.572574
  C     -5.900577   -3.818752    0.098004
  C     -6.697071   -3.490869    1.347902
  C     -5.926249   -5.261337   -0.344178
  C     -2.569650   -5.195117    0.582774
  C     -2.296435    5.044966   -0.086798
  C     -6.233537    3.051586   -2.257065
  H     -7.345843   -1.458592   -0.529057
  H     -0.688641    1.233308    0.219937
  H     -2.653476   -5.434760   -0.472972
  H     -3.340361   -5.735168    1.131653
  H     -1.605713   -5.558018    0.941617
  H     -3.862298   -3.440751    2.586746
  H     -2.175279   -3.809169    2.912149
  H     -2.637641   -2.193140    2.350386
  H     -5.621356   -5.923388    0.466356
  H     -5.269145   -5.422271   -1.193507
  H     -6.937582   -5.553913   -0.628812
  H     -6.531993   -4.249949    2.111396
  H     -7.765680   -3.479306    1.132233
  H     -6.421214   -2.519450    1.749290
  H     -6.967362    5.282461   -0.664248
  H     -5.315282    5.517481   -1.200413
  H     -5.638426    5.131206    0.493051
  H     -5.807209    3.736570   -2.988424
  H     -7.316926    3.088754   -2.373789
  H     -5.901152    2.041943   -2.482369
  H     -2.880191    5.203816    0.815058
  H     -1.292830    5.439664    0.072596
  H     -2.741677    5.625094   -0.895809
  H     -1.639545    3.966323   -2.481552
  H     -0.388216    3.233838   -1.493171
  H     -1.726448    2.244768   -2.070909
  H     10.386114   -2.347325    1.444165
  H     -7.439926    1.015741   -0.339429

 Multiplicity           Mult            ....    1
 Number of Electrons    NEL             ....  354
 Basis Dimension        Dim             .... 1803

ORBITAL ENERGIES
----------------

  NO   OCC          E(Eh)            E(eV)
   0   2.0000     -14.465520      -393.6268
   1   2.0000     -14.439427      -392.9168
   2   2.0000     -14.439117      -392.9083
   3   2.0000     -14.438861      -392.9014
   4   2.0000     -14.431697      -392.7064
   5   2.0000     -14.431195      -392.6928
   6   2.0000     -14.426725      -392.5711
   7   2.0000     -14.414157      -392.2292
   8   2.0000     -14.409096      -392.0914
   9   2.0000     -14.408814      -392.0838
  10   2.0000     -14.403853      -391.9488
  11   2.0000     -10.382809      -282.5306
  12   2.0000     -10.381943      -282.5070
  13   2.0000     -10.377001      -282.3725
  14   2.0000     -10.374279      -282.2985
  15   2.0000     -10.371421      -282.2207
  16   2.0000     -10.362921      -281.9894
  17   2.0000     -10.335772      -281.2506
  18   2.0000     -10.331714      -281.1402
  19   2.0000     -10.330671      -281.1118
  20   2.0000     -10.327582      -281.0278
  21   2.0000     -10.327168      -281.0165
  22   2.0000     -10.327074      -281.0140
  23   2.0000     -10.322704      -280.8951
  24   2.0000     -10.315199      -280.6908
  25   2.0000     -10.312003      -280.6039
  26   2.0000     -10.305478      -280.4263
  27   2.0000     -10.303362      -280.3687
  28   2.0000     -10.297154      -280.1998
  29   2.0000     -10.297127      -280.1991
  30   2.0000     -10.296456      -280.1808
  31   2.0000     -10.292223      -280.0656
  32   2.0000     -10.288311      -279.9592
  33   2.0000     -10.285989      -279.8960
  34   2.0000     -10.285500      -279.8827
  35   2.0000     -10.282588      -279.8034
  36   2.0000     -10.281687      -279.7789
  37   2.0000     -10.280857      -279.7563
  38   2.0000     -10.279254      -279.7127
  39   2.0000     -10.277858      -279.6747
  40   2.0000     -10.277588      -279.6674
  41   2.0000     -10.276716      -279.6437
  42   2.0000     -10.275414      -279.6082
  43   2.0000     -10.274698      -279.5887
  44   2.0000     -10.274227      -279.5759
  45   2.0000     -10.271979      -279.5148
  46   2.0000     -10.271158      -279.4924
  47   2.0000     -10.270421      -279.4724
  48   2.0000     -10.269415      -279.4450
  49   2.0000     -10.268933      -279.4319
  50   2.0000     -10.268676      -279.4249
  51   2.0000      -1.141357       -31.0579
  52   2.0000      -1.125403       -30.6238
  53   2.0000      -1.102454       -29.9993
  54   2.0000      -1.058261       -28.7967
  55   2.0000      -1.047372       -28.5004
  56   2.0000      -1.037220       -28.2242
  57   2.0000      -1.029254       -28.0074
  58   2.0000      -1.026809       -27.9409
  59   2.0000      -1.019659       -27.7463
  60   2.0000      -1.007047       -27.4032
  61   2.0000      -0.996444       -27.1146
  62   2.0000      -0.970776       -26.4161
  63   2.0000      -0.968119       -26.3439
  64   2.0000      -0.960134       -26.1266
  65   2.0000      -0.931111       -25.3368
  66   2.0000      -0.906745       -24.6738
  67   2.0000      -0.898986       -24.4627
  68   2.0000      -0.884747       -24.0752
  69   2.0000      -0.878709       -23.9109
  70   2.0000      -0.873056       -23.7571
  71   2.0000      -0.868598       -23.6357
  72   2.0000      -0.861139       -23.4328
  73   2.0000      -0.848430       -23.0870
  74   2.0000      -0.836324       -22.7575
  75   2.0000      -0.832375       -22.6501
  76   2.0000      -0.831594       -22.6288
  77   2.0000      -0.822333       -22.3768
  78   2.0000      -0.819174       -22.2909
  79   2.0000      -0.815840       -22.2001
  80   2.0000      -0.814049       -22.1514
  81   2.0000      -0.804082       -21.8802
  82   2.0000      -0.795268       -21.6403
  83   2.0000      -0.780662       -21.2429
  84   2.0000      -0.764583       -20.8054
  85   2.0000      -0.749221       -20.3874
  86   2.0000      -0.733531       -19.9604
  87   2.0000      -0.725104       -19.7311
  88   2.0000      -0.720920       -19.6172
  89   2.0000      -0.715555       -19.4712
  90   2.0000      -0.709935       -19.3183
  91   2.0000      -0.688977       -18.7480
  92   2.0000      -0.667864       -18.1735
  93   2.0000      -0.665166       -18.1001
  94   2.0000      -0.661760       -18.0074
  95   2.0000      -0.653662       -17.7871
  96   2.0000      -0.649232       -17.6665
  97   2.0000      -0.633408       -17.2359
  98   2.0000      -0.628344       -17.0981
  99   2.0000      -0.616499       -16.7758
 100   2.0000      -0.608990       -16.5714
 101   2.0000      -0.601720       -16.3736
 102   2.0000      -0.596944       -16.2437
 103   2.0000      -0.592272       -16.1165
 104   2.0000      -0.586103       -15.9487
 105   2.0000      -0.582572       -15.8526
 106   2.0000      -0.580103       -15.7854
 107   2.0000      -0.573875       -15.6159
 108   2.0000      -0.566067       -15.4035
 109   2.0000      -0.561889       -15.2898
 110   2.0000      -0.560203       -15.2439
 111   2.0000      -0.557256       -15.1637
 112   2.0000      -0.554923       -15.1002
 113   2.0000      -0.553878       -15.0718
 114   2.0000      -0.551196       -14.9988
 115   2.0000      -0.547054       -14.8861
 116   2.0000      -0.545996       -14.8573
 117   2.0000      -0.542795       -14.7702
 118   2.0000      -0.539569       -14.6824
 119   2.0000      -0.539252       -14.6738
 120   2.0000      -0.536569       -14.6008
 121   2.0000      -0.534118       -14.5341
 122   2.0000      -0.532473       -14.4893
 123   2.0000      -0.528939       -14.3932
 124   2.0000      -0.526457       -14.3256
 125   2.0000      -0.522130       -14.2079
 126   2.0000      -0.518935       -14.1209
 127   2.0000      -0.515905       -14.0385
 128   2.0000      -0.513567       -13.9749
 129   2.0000      -0.508313       -13.8319
 130   2.0000      -0.506275       -13.7764
 131   2.0000      -0.502016       -13.6606
 132   2.0000      -0.495924       -13.4948
 133   2.0000      -0.493407       -13.4263
 134   2.0000      -0.488024       -13.2798
 135   2.0000      -0.486723       -13.2444
 136   2.0000      -0.485984       -13.2243
 137   2.0000      -0.484695       -13.1892
 138   2.0000      -0.483383       -13.1535
 139   2.0000      -0.477709       -12.9991
 140   2.0000      -0.470897       -12.8138
 141   2.0000      -0.467659       -12.7256
 142   2.0000      -0.466989       -12.7074
 143   2.0000      -0.466047       -12.6818
 144   2.0000      -0.463585       -12.6148
 145   2.0000      -0.462349       -12.5812
 146   2.0000      -0.461725       -12.5642
 147   2.0000      -0.460302       -12.5254
 148   2.0000      -0.456804       -12.4303
 149   2.0000      -0.452660       -12.3175
 150   2.0000      -0.445729       -12.1289
 151   2.0000      -0.441951       -12.0261
 152   2.0000      -0.440564       -11.9883
 153   2.0000      -0.434983       -11.8365
 154   2.0000      -0.426077       -11.5942
 155   2.0000      -0.416533       -11.3344
 156   2.0000      -0.413059       -11.2399
 157   2.0000      -0.409954       -11.1554
 158   2.0000      -0.405556       -11.0357
 159   2.0000      -0.392171       -10.6715
 160   2.0000      -0.390990       -10.6394
 161   2.0000      -0.385683       -10.4950
 162   2.0000      -0.376341       -10.2408
 163   2.0000      -0.370334       -10.0773
 164   2.0000      -0.363951        -9.9036
 165   2.0000      -0.360309        -9.8045
 166   2.0000      -0.357813        -9.7366
 167   2.0000      -0.344000        -9.3607
 168   2.0000      -0.342332        -9.3153
 169   2.0000      -0.340043        -9.2530
 170   2.0000      -0.327393        -8.9088
 171   2.0000      -0.324318        -8.8251
 172   2.0000      -0.321006        -8.7350
 173   2.0000      -0.299867        -8.1598
 174   2.0000      -0.296947        -8.0803
 175   2.0000      -0.287375        -7.8199
 176   2.0000      -0.242932        -6.6105
 177   0.0000      -0.025127        -0.6837
 178   0.0000      -0.005841        -0.1589
 179   0.0000       0.006406         0.1743
 180   0.0000       0.034344         0.9345
 181   0.0000       0.042616         1.1596

MULLIKEN ATOMIC CHARGES
-----------------------
   0 C :   -0.170115
   1 C :   -0.124498
   2 C :   -0.021035
   3 C :    0.189659
   4 C :   -0.248784
   5 C :   -0.078182
   6 C :   -0.018059
   7 C :    0.181252
   8 N :   -0.303393
   9 C :   -0.221602
  10 C :   -0.073260
  11 C :   -0.252485
  12 C :    0.139010
  13 H :    0.150183
  14 H :    0.235367
  15 H :    0.123673
  16 H :    0.132959
  17 H :    0.112197
  18 H :    0.120843
  19 H :    0.112587
  20 C :    0.308865
  21 N :   -0.281913
  22 C :    0.209780
  23 N :   -0.272257
  24 C :    0.094016
  25 N :   -0.292567
  26 C :    0.217598
  27 N :   -0.281511
  28 C :    0.275153
  29 N :   -0.337275
  30 C :    0.115954
  31 N :   -0.269495
  32 H :    0.151212
  33 H :    0.144215
  34 C :    0.091289
  35 C :   -0.209174
  36 C :   -0.200251
  37 C :    0.028312
  38 C :    0.109320
  39 C :    0.168015
  40 C :    0.128625
  41 C :   -0.401930
  42 C :    0.166716
  43 C :   -0.200549
  44 N :   -0.172736
  45 C :    0.157361
  46 C :   -0.353997
  47 N :   -0.243076
  48 C :    0.129937
  49 C :   -0.376090
  50 N :   -0.217893
  51 C :    0.114865
  52 C :   -0.346280
  53 N :   -0.238108
  54 C :    0.114856
  55 C :   -0.396804
  56 C :   -0.360529
  57 C :   -0.369108
  58 C :   -0.355141
  59 C :   -0.367357
  60 H :    0.124676
  61 H :    0.183731
  62 H :    0.145029
  63 H :    0.109951
  64 H :    0.137590
  65 H :    0.131365
  66 H :    0.133055
  67 H :    0.157516
  68 H :    0.115770
  69 H :    0.146497
  70 H :    0.135856
  71 H :    0.131029
  72 H :    0.144809
  73 H :    0.168769
  74 H :    0.132195
  75 H :    0.114820
  76 H :    0.142937
  77 H :    0.125261
  78 H :    0.135207
  79 H :    0.159774
  80 H :    0.141298
  81 H :    0.135304
  82 H :    0.112950
  83 H :    0.121364
  84 H :    0.146681
  85 H :    0.157101
  86 H :    0.118038
  87 H :    0.123060
Sum of atomic charges:   -0.0000000

LOEWDIN ATOMIC CHARGES
----------------------
   0 C :   -0.161599
   1 C :   -0.096223
   2 C :   -0.077592
   3 C :   -0.144879
   4 C :   -0.135935
   5 C :   -0.141866
   6 C :   -0.031455
   7 C :   -0.145018
   8 N :    0.199339
   9 C :   -0.118756
  10 C :   -0.141470
  11 C :   -0.096184
  12 C :   -0.076180
  13 H :    0.157458
  14 H :    0.192716
  15 H :    0.146631
  16 H :    0.149859
  17 H :    0.142333
  18 H :    0.144046
  19 H :    0.142319
  20 C :   -0.191607
  21 N :    0.170413
  22 C :   -0.228312
  23 N :    0.123923
  24 C :   -0.237922
  25 N :    0.138262
  26 C :   -0.215237
  27 N :    0.178268
  28 C :   -0.193842
  29 N :    0.126299
  30 C :   -0.231978
  31 N :    0.130621
  32 H :    0.141545
  33 H :    0.139382
  34 C :   -0.162037
  35 C :   -0.127503
  36 C :   -0.122864
  37 C :   -0.162307
  38 C :   -0.025933
  39 C :   -0.033270
  40 C :   -0.169286
  41 C :   -0.075269
  42 C :   -0.107470
  43 C :   -0.103364
  44 N :    0.210472
  45 C :   -0.264215
  46 C :   -0.259166
  47 N :    0.185892
  48 C :   -0.265332
  49 C :   -0.269395
  50 N :    0.189075
  51 C :   -0.267142
  52 C :   -0.262829
  53 N :    0.189885
  54 C :   -0.270719
  55 C :   -0.275374
  56 C :   -0.263968
  57 C :   -0.259470
  58 C :   -0.264259
  59 C :   -0.268063
  60 H :    0.149149
  61 H :    0.163146
  62 H :    0.133337
  63 H :    0.124711
  64 H :    0.132939
  65 H :    0.133286
  66 H :    0.130143
  67 H :    0.136680
  68 H :    0.124459
  69 H :    0.132514
  70 H :    0.130956
  71 H :    0.127025
  72 H :    0.133202
  73 H :    0.135337
  74 H :    0.129327
  75 H :    0.126390
  76 H :    0.131851
  77 H :    0.127965
  78 H :    0.132727
  79 H :    0.135042
  80 H :    0.130899
  81 H :    0.130264
  82 H :    0.124785
  83 H :    0.125574
  84 H :    0.136396
  85 H :    0.134970
  86 H :    0.144588
  87 H :    0.148883

  Mayer bond orders larger than 0.1
B(  0-C ,  1-C ) :   1.5313 B(  0-C ,  5-C ) :   1.3498 B(  0-C , 19-H ) :   0.9898
B(  1-C ,  2-C ) :   1.2684 B(  1-C , 16-H ) :   0.9479 B(  2-C ,  3-C ) :   1.3456
B(  2-C ,  6-C ) :   1.0757 B(  3-C ,  4-C ) :   1.2954 B(  3-C ,  8-N ) :   1.1191
B(  4-C ,  5-C ) :   1.4847 B(  4-C , 17-H ) :   0.9796 B(  5-C , 18-H ) :   0.9815
B(  6-C ,  7-C ) :   1.3226 B(  6-C , 12-C ) :   1.2354 B(  7-C ,  8-N ) :   1.1471
B(  7-C ,  9-C ) :   1.2875 B(  8-N , 14-H ) :   0.9131 B(  9-C , 10-C ) :   1.4532
B(  9-C , 86-H ) :   0.9746 B( 10-C , 11-C ) :   1.3841 B( 10-C , 15-H ) :   0.9857
B( 11-C , 12-C ) :   1.4529 B( 11-C , 13-H ) :   0.9536 B( 12-C , 28-C ) :   0.9659
B( 20-C , 21-N ) :   1.4186 B( 20-C , 25-N ) :   1.4104 B( 20-C , 42-C ) :   0.9865
B( 21-N , 22-C ) :   1.5281 B( 21-N , 42-C ) :  -0.1069 B( 22-C , 23-N ) :   1.4489
B( 22-C , 26-C ) :   1.0431 B( 23-N , 24-C ) :   1.4730 B( 24-C , 25-N ) :   1.4882
B( 24-C , 33-H ) :   0.9657 B( 26-C , 27-N ) :   1.5146 B( 26-C , 31-N ) :   1.4382
B( 27-N , 28-C ) :   1.4496 B( 28-C , 29-N ) :   1.3894 B( 29-N , 30-C ) :   1.4524
B( 30-C , 31-N ) :   1.4799 B( 30-C , 32-H ) :   0.9642 B( 34-C , 35-C ) :   1.4843
B( 34-C , 39-C ) :   1.2164 B( 34-C , 53-N ) :   1.0901 B( 35-C , 36-C ) :   1.2437
B( 35-C , 60-H ) :   0.9846 B( 36-C , 37-C ) :   1.5072 B( 36-C , 87-H ) :   0.9829
B( 37-C , 38-C ) :   1.2356 B( 37-C , 50-N ) :   1.1071 B( 38-C , 39-C ) :   1.2747
B( 38-C , 40-C ) :   1.1952 B( 39-C , 43-C ) :   1.2123 B( 40-C , 41-C ) :   1.4896
B( 40-C , 47-N ) :   1.0922 B( 41-C , 42-C ) :   1.1962 B( 41-C , 61-H ) :   0.9539
B( 42-C , 43-C ) :   1.4196 B( 43-C , 44-N ) :   1.2275 B( 44-N , 45-C ) :   1.8269
B( 45-C , 46-C ) :   0.9338 B( 45-C , 57-C ) :   0.9374 B( 46-C , 65-H ) :   0.9570
B( 46-C , 66-H ) :   0.9661 B( 46-C , 67-H ) :   0.9769 B( 47-N , 48-C ) :   1.9059
B( 48-C , 49-C ) :   0.9515 B( 48-C , 58-C ) :   0.9544 B( 49-C , 83-H ) :   0.9619
B( 49-C , 84-H ) :   0.9589 B( 49-C , 85-H ) :   0.9782 B( 50-N , 51-C ) :   1.9072
B( 51-C , 52-C ) :   0.9582 B( 51-C , 59-C ) :   0.9457 B( 52-C , 74-H ) :   0.9567
B( 52-C , 75-H ) :   0.9658 B( 52-C , 76-H ) :   0.9885 B( 53-N , 54-C ) :   1.8867
B( 54-C , 55-C ) :   0.9475 B( 54-C , 56-C ) :   0.9597 B( 55-C , 71-H ) :   0.9625
B( 55-C , 72-H ) :   0.9588 B( 55-C , 73-H ) :   0.9791 B( 56-C , 68-H ) :   0.9688
B( 56-C , 69-H ) :   0.9892 B( 56-C , 70-H ) :   0.9536 B( 57-C , 62-H ) :   0.9939
B( 57-C , 63-H ) :   0.9733 B( 57-C , 64-H ) :   0.9524 B( 58-C , 80-H ) :   0.9890
B( 58-C , 81-H ) :   0.9571 B( 58-C , 82-H ) :   0.9679 B( 59-C , 77-H ) :   0.9611
B( 59-C , 78-H ) :   0.9618 B( 59-C , 79-H ) :   0.9795

Dispersion correction           -0.050729604
FINAL SINGLE POINT ENERGY     -2148.935522310321

DIPOLE MOMENT
-------------
                                X             Y             Z
Electronic contribution:     60.82955      -4.52617       4.57564
Nuclear contribution   :    -61.16723       4.23454      -4.59359
                        -----------------------------------------
Total Dipole Moment    :     -0.33769      -0.29163      -0.01795
                        -----------------------------------------
Magnitude (a.u.)       :      0.44655
Magnitude (Debye)      :      1.13504

                             ****ORCA TERMINATED NORMALLY****
TOTAL RUN TIME: 0 days 0 hours 38 minutes 15 seconds 89 msec
