                         Program Version 4.0.0 -  RELEASE  -
|  1> #
|  2> !wB97X-D3 def2-TZVP def2/J RIJCOSX Grid5 FinalGrid6 TightSCF
|  3> %pal
|  4>  nprocs 24
|  5> end
|  6> %tddft
|  7>   Mode sTDDFT
|  8>   nroots 2
|  9>   Ethresh 10.0
| 10>   maxcore 5000
| 11>   triplets true
| 12> end
| 13> * xyz 0 1
| 14> C -5.48059320 -2.27270189 1.06072266
| 15> C -4.56468060 -1.28937486 0.69524085
| 16> C -5.03039256 -0.11932871 0.06588085
| 17> C -6.42641721 0.00626378 -0.18090426
| 18> C -7.35227892 -0.97981115 0.19255768
| 19> C -6.85715711 -2.12123771 0.81833073
| 20> C -4.40488477 1.07974054 -0.47111819
| 21> C -5.46212344 1.85707980 -1.03069637
| 22> N -6.66446569 1.20463422 -0.83107346
| 23> C -5.25195891 3.07641554 -1.69138679
| 24> C -3.93682912 3.52182725 -1.80786485
| 25> C -2.87713070 2.78049603 -1.27091063
| 26> C -3.07337623 1.56768433 -0.58231308
| 27> H -1.86562609 3.16810220 -1.36862934
| 28> H -7.56909541 1.53609337 -1.14255028
| 29> H -3.72702154 4.45754321 -2.31829168
| 30> H -3.50692047 -1.42695772 0.89956392
| 31> H -8.41410294 -0.85766603 -0.00427685
| 32> H -7.54390854 -2.90698046 1.12212701
| 33> H -5.12620726 -3.17698988 1.54788455
| 34> S 2.94985814 0.28398487 -0.28878695
| 35> C 4.08757285 -0.66764060 0.69197077
| 36> N 3.48899323 -1.32340865 1.67989545
| 37> N 2.13834466 -1.13210477 1.73577679
| 38> C 1.68126547 -0.32373407 0.78814219
| 39> C 0.28797544 0.03860691 0.62898568
| 40> N -0.69453141 -0.38462699 1.41186418
| 41> N -1.92254576 0.09929846 1.05101321
| 42> C -1.90586538 0.89040051 -0.00908224
| 43> S -0.26168626 1.11875747 -0.66575896
| 44> C 6.11134333 0.00489600 -0.63952189
| 45> C 5.52529628 -0.71724093 0.43179479
| 46> C 6.40207364 -1.49180859 1.24081028
| 47> C 7.78802528 -1.53864181 0.98863072
| 48> C 8.32513430 -0.80477317 -0.08690255
| 49> C 7.48992491 -0.02884687 -0.90711484
| 50> O 9.65091719 -0.83839668 -0.34269792
| 51> O 5.90215415 -2.19656511 2.26998675
| 52> O 5.30605699 0.75231948 -1.42938491
| 53> H 5.81456890 1.19558558 -2.12106706
| 54> H 6.60182808 -2.67410166 2.73314143
| 55> H 10.10573078 -1.40606908 0.29270255
| 56> H 7.90839008 0.53449648 -1.73411757
| 57> H -6.08129554 3.64373664 -2.10437648
| 58> H 8.43554134 -2.13895527 1.62290411
| 59> *
| 60> $new_job
| 61> #
| 62> !wB97X-D3 def2-TZVP def2/J RIJCOSX Grid5 FinalGrid6 TightSCF
| 63> %pal
| 64>  nprocs 24
| 65> end
| 66> %elprop
| 67>    dipole     true
| 68>    quadrupole true
| 69> end
| 70> %tddft
| 71>   Mode sTDDFT
| 72>   nroots 2
| 73>   Ethresh 10.0
| 74>   maxcore 5000
| 75> end
| 76> * xyz 0 1
| 77> C -5.48059320 -2.27270189 1.06072266
| 78> C -4.56468060 -1.28937486 0.69524085
| 79> C -5.03039256 -0.11932871 0.06588085
| 80> C -6.42641721 0.00626378 -0.18090426
| 81> C -7.35227892 -0.97981115 0.19255768
| 82> C -6.85715711 -2.12123771 0.81833073
| 83> C -4.40488477 1.07974054 -0.47111819
| 84> C -5.46212344 1.85707980 -1.03069637
| 85> N -6.66446569 1.20463422 -0.83107346
| 86> C -5.25195891 3.07641554 -1.69138679
| 87> C -3.93682912 3.52182725 -1.80786485
| 88> C -2.87713070 2.78049603 -1.27091063
| 89> C -3.07337623 1.56768433 -0.58231308
| 90> H -1.86562609 3.16810220 -1.36862934
| 91> H -7.56909541 1.53609337 -1.14255028
| 92> H -3.72702154 4.45754321 -2.31829168
| 93> H -3.50692047 -1.42695772 0.89956392
| 94> H -8.41410294 -0.85766603 -0.00427685
| 95> H -7.54390854 -2.90698046 1.12212701
| 96> H -5.12620726 -3.17698988 1.54788455
| 97> S 2.94985814 0.28398487 -0.28878695
| 98> C 4.08757285 -0.66764060 0.69197077
| 99> N 3.48899323 -1.32340865 1.67989545
|100> N 2.13834466 -1.13210477 1.73577679
|101> C 1.68126547 -0.32373407 0.78814219
|102> C 0.28797544 0.03860691 0.62898568
|103> N -0.69453141 -0.38462699 1.41186418
|104> N -1.92254576 0.09929846 1.05101321
|105> C -1.90586538 0.89040051 -0.00908224
|106> S -0.26168626 1.11875747 -0.66575896
|107> C 6.11134333 0.00489600 -0.63952189
|108> C 5.52529628 -0.71724093 0.43179479
|109> C 6.40207364 -1.49180859 1.24081028
|110> C 7.78802528 -1.53864181 0.98863072
|111> C 8.32513430 -0.80477317 -0.08690255
|112> C 7.48992491 -0.02884687 -0.90711484
|113> O 9.65091719 -0.83839668 -0.34269792
|114> O 5.90215415 -2.19656511 2.26998675
|115> O 5.30605699 0.75231948 -1.42938491
|116> H 5.81456890 1.19558558 -2.12106706
|117> H 6.60182808 -2.67410166 2.73314143
|118> H 10.10573078 -1.40606908 0.29270255
|119> H 7.90839008 0.53449648 -1.73411757
|120> H -6.08129554 3.64373664 -2.10437648
|121> H 8.43554134 -2.13895527 1.62290411
|122> *
|123>
|124>                          ****END OF INPUT****
 Total Charge           Charge          ....    0
 Multiplicity           Mult            ....    1
 Number of Electrons    NEL             ....  236
Dispersion correction           -0.020166014
FINAL SINGLE POINT ENERGY     -2142.065613059413

CARTESIAN COORDINATES (ANGSTROEM)
---------------------------------
  C     -5.480593   -2.272702    1.060723
  C     -4.564681   -1.289375    0.695241
  C     -5.030393   -0.119329    0.065881
  C     -6.426417    0.006264   -0.180904
  C     -7.352279   -0.979811    0.192558
  C     -6.857157   -2.121238    0.818331
  C     -4.404885    1.079741   -0.471118
  C     -5.462123    1.857080   -1.030696
  N     -6.664466    1.204634   -0.831073
  C     -5.251959    3.076416   -1.691387
  C     -3.936829    3.521827   -1.807865
  C     -2.877131    2.780496   -1.270911
  C     -3.073376    1.567684   -0.582313
  H     -1.865626    3.168102   -1.368629
  H     -7.569095    1.536093   -1.142550
  H     -3.727022    4.457543   -2.318292
  H     -3.506920   -1.426958    0.899564
  H     -8.414103   -0.857666   -0.004277
  H     -7.543909   -2.906980    1.122127
  H     -5.126207   -3.176990    1.547885
  S      2.949858    0.283985   -0.288787
  C      4.087573   -0.667641    0.691971
  N      3.488993   -1.323409    1.679895
  N      2.138345   -1.132105    1.735777
  C      1.681265   -0.323734    0.788142
  C      0.287975    0.038607    0.628986
  N     -0.694531   -0.384627    1.411864
  N     -1.922546    0.099298    1.051013
  C     -1.905865    0.890401   -0.009082
  S     -0.261686    1.118757   -0.665759
  C      6.111343    0.004896   -0.639522
  C      5.525296   -0.717241    0.431795
  C      6.402074   -1.491809    1.240810
  C      7.788025   -1.538642    0.988631
  C      8.325134   -0.804773   -0.086903
  C      7.489925   -0.028847   -0.907115
  O      9.650917   -0.838397   -0.342698
  O      5.902154   -2.196565    2.269987
  O      5.306057    0.752319   -1.429385
  H      5.814569    1.195586   -2.121067
  H      6.601828   -2.674102    2.733141
  H     10.105731   -1.406069    0.292703
  H      7.908390    0.534496   -1.734118
  H     -6.081296    3.643737   -2.104376
  H      8.435541   -2.138955    1.622904

 Multiplicity           Mult            ....    1
 Number of Electrons    NEL             ....  236
 Basis Dimension        Dim             .... 1082

ORBITAL ENERGIES
----------------

  NO   OCC          E(Eh)            E(eV)
   0   2.0000     -88.999898     -2421.8104
   1   2.0000     -88.994291     -2421.6578
   2   2.0000     -19.296621      -525.0877
   3   2.0000     -19.290059      -524.9092
   4   2.0000     -19.278969      -524.6074
   5   2.0000     -14.466643      -393.6574
   6   2.0000     -14.458692      -393.4410
   7   2.0000     -14.456730      -393.3876
   8   2.0000     -14.453727      -393.3059
   9   2.0000     -14.445588      -393.0844
  10   2.0000     -10.382695      -282.5275
  11   2.0000     -10.380995      -282.4812
  12   2.0000     -10.378994      -282.4268
  13   2.0000     -10.369128      -282.1583
  14   2.0000     -10.367660      -282.1184
  15   2.0000     -10.366105      -282.0761
  16   2.0000     -10.358623      -281.8725
  17   2.0000     -10.330912      -281.1184
  18   2.0000     -10.321740      -280.8688
  19   2.0000     -10.316580      -280.7284
  20   2.0000     -10.313382      -280.6414
  21   2.0000     -10.300831      -280.2999
  22   2.0000     -10.296530      -280.1828
  23   2.0000     -10.295517      -280.1553
  24   2.0000     -10.294179      -280.1189
  25   2.0000     -10.292631      -280.0767
  26   2.0000     -10.290807      -280.0271
  27   2.0000     -10.284436      -279.8537
  28   2.0000     -10.280141      -279.7369
  29   2.0000     -10.279098      -279.7085
  30   2.0000     -10.272300      -279.5235
  31   2.0000     -10.265901      -279.3494
  32   2.0000      -8.096673      -220.3217
  33   2.0000      -8.090618      -220.1569
  34   2.0000      -6.049590      -164.6177
  35   2.0000      -6.045943      -164.5185
  36   2.0000      -6.043822      -164.4608
  37   2.0000      -6.043790      -164.4599
  38   2.0000      -6.039757      -164.3502
  39   2.0000      -6.037588      -164.2911
  40   2.0000      -1.217188       -33.1214
  41   2.0000      -1.209556       -32.9137
  42   2.0000      -1.202959       -32.7342
  43   2.0000      -1.143583       -31.1185
  44   2.0000      -1.132158       -30.8076
  45   2.0000      -1.103870       -30.0378
  46   2.0000      -0.990898       -26.9637
  47   2.0000      -0.985716       -26.8227
  48   2.0000      -0.966075       -26.2882
  49   2.0000      -0.958558       -26.0837
  50   2.0000      -0.936382       -25.4803
  51   2.0000      -0.932569       -25.3765
  52   2.0000      -0.902701       -24.5637
  53   2.0000      -0.896521       -24.3956
  54   2.0000      -0.875894       -23.8343
  55   2.0000      -0.874545       -23.7976
  56   2.0000      -0.868790       -23.6410
  57   2.0000      -0.842048       -22.9133
  58   2.0000      -0.836926       -22.7739
  59   2.0000      -0.787459       -21.4278
  60   2.0000      -0.773025       -21.0351
  61   2.0000      -0.763729       -20.7821
  62   2.0000      -0.755773       -20.5656
  63   2.0000      -0.724025       -19.7017
  64   2.0000      -0.720759       -19.6129
  65   2.0000      -0.710966       -19.3464
  66   2.0000      -0.708567       -19.2811
  67   2.0000      -0.695277       -18.9194
  68   2.0000      -0.680509       -18.5176
  69   2.0000      -0.664558       -18.0835
  70   2.0000      -0.654527       -17.8106
  71   2.0000      -0.640573       -17.4309
  72   2.0000      -0.633308       -17.2332
  73   2.0000      -0.621165       -16.9028
  74   2.0000      -0.612363       -16.6632
  75   2.0000      -0.597343       -16.2545
  76   2.0000      -0.591732       -16.1018
  77   2.0000      -0.573373       -15.6023
  78   2.0000      -0.570585       -15.5264
  79   2.0000      -0.566596       -15.4179
  80   2.0000      -0.558708       -15.2032
  81   2.0000      -0.555838       -15.1251
  82   2.0000      -0.549221       -14.9451
  83   2.0000      -0.544396       -14.8138
  84   2.0000      -0.539956       -14.6929
  85   2.0000      -0.532457       -14.4889
  86   2.0000      -0.531308       -14.4576
  87   2.0000      -0.527664       -14.3585
  88   2.0000      -0.525465       -14.2986
  89   2.0000      -0.522458       -14.2168
  90   2.0000      -0.520795       -14.1715
  91   2.0000      -0.517422       -14.0798
  92   2.0000      -0.515037       -14.0149
  93   2.0000      -0.512110       -13.9352
  94   2.0000      -0.496470       -13.5096
  95   2.0000      -0.475409       -12.9365
  96   2.0000      -0.473294       -12.8790
  97   2.0000      -0.467643       -12.7252
  98   2.0000      -0.464814       -12.6482
  99   2.0000      -0.463405       -12.6099
 100   2.0000      -0.441414       -12.0115
 101   2.0000      -0.441362       -12.0101
 102   2.0000      -0.430916       -11.7258
 103   2.0000      -0.423480       -11.5235
 104   2.0000      -0.407043       -11.0762
 105   2.0000      -0.396511       -10.7896
 106   2.0000      -0.390827       -10.6350
 107   2.0000      -0.389427       -10.5969
 108   2.0000      -0.384108       -10.4521
 109   2.0000      -0.376313       -10.2400
 110   2.0000      -0.365677        -9.9506
 111   2.0000      -0.358756        -9.7622
 112   2.0000      -0.343829        -9.3561
 113   2.0000      -0.334624        -9.1056
 114   2.0000      -0.326852        -8.8941
 115   2.0000      -0.302837        -8.2406
 116   2.0000      -0.294270        -8.0075
 117   2.0000      -0.284176        -7.7328
 118   0.0000      -0.022326        -0.6075
 119   0.0000       0.015551         0.4232
 120   0.0000       0.041514         1.1296
 121   0.0000       0.047318         1.2876
 122   0.0000       0.059451         1.6177

MULLIKEN ATOMIC CHARGES
-----------------------
   0 C :   -0.180187
   1 C :   -0.139408
   2 C :   -0.025908
   3 C :    0.176386
   4 C :   -0.243612
   5 C :   -0.071896
   6 C :   -0.033099
   7 C :    0.190373
   8 N :   -0.303306
   9 C :   -0.224436
  10 C :   -0.098123
  11 C :   -0.280566
  12 C :    0.136309
  13 H :    0.123747
  14 H :    0.236115
  15 H :    0.124567
  16 H :    0.165909
  17 H :    0.110995
  18 H :    0.120415
  19 H :    0.120809
  20 S :    0.016290
  21 C :    0.205852
  22 N :   -0.079741
  23 N :   -0.176137
  24 C :    0.065367
  25 C :    0.139820
  26 N :   -0.128507
  27 N :   -0.182169
  28 C :    0.177675
  29 S :   -0.010510
  30 C :    0.324022
  31 C :   -0.190317
  32 C :    0.175745
  33 C :   -0.325876
  34 C :    0.269795
  35 C :   -0.353815
  36 O :   -0.404125
  37 O :   -0.344306
  38 O :   -0.427762
  39 H :    0.338128
  40 H :    0.322302
  41 H :    0.334323
  42 H :    0.123322
  43 H :    0.119621
  44 H :    0.105922
Sum of atomic charges:   -0.0000000

LOEWDIN ATOMIC CHARGES
----------------------
   0 C :   -0.157023
   1 C :   -0.089871
   2 C :   -0.077747
   3 C :   -0.145105
   4 C :   -0.137803
   5 C :   -0.139507
   6 C :   -0.027982
   7 C :   -0.143543
   8 N :    0.200761
   9 C :   -0.120204
  10 C :   -0.143427
  11 C :   -0.125803
  12 C :   -0.115585
  13 H :    0.144064
  14 H :    0.193073
  15 H :    0.147026
  16 H :    0.155620
  17 H :    0.142035
  18 H :    0.144169
  19 H :    0.144671
  20 S :    0.699414
  21 C :   -0.384674
  22 N :    0.050083
  23 N :    0.068685
  24 C :   -0.469862
  25 C :   -0.455102
  26 N :    0.067429
  27 N :    0.053361
  28 C :   -0.376807
  29 S :    0.692384
  30 C :   -0.226153
  31 C :   -0.129794
  32 C :   -0.216520
  33 C :   -0.165834
  34 C :   -0.266952
  35 C :   -0.146566
  36 O :    0.099906
  37 O :    0.138058
  38 O :    0.100393
  39 H :    0.198902
  40 H :    0.193781
  41 H :    0.195518
  42 H :    0.147840
  43 H :    0.145113
  44 H :    0.139581

  Mayer bond orders larger than 0.1
B(  0-C ,  1-C ) :   1.5384 B(  0-C ,  5-C ) :   1.3500 B(  0-C , 19-H ) :   0.9875
B(  1-C ,  2-C ) :   1.2629 B(  1-C , 16-H ) :   0.9349 B(  2-C ,  3-C ) :   1.3514
B(  2-C ,  6-C ) :   1.0775 B(  3-C ,  4-C ) :   1.3012 B(  3-C ,  8-N ) :   1.1132
B(  4-C ,  5-C ) :   1.4759 B(  4-C , 17-H ) :   0.9805 B(  5-C , 18-H ) :   0.9830
B(  6-C ,  7-C ) :   1.3182 B(  6-C , 12-C ) :   1.2430 B(  7-C ,  8-N ) :   1.1541
B(  7-C ,  9-C ) :   1.2870 B(  8-N , 14-H ) :   0.9135 B(  9-C , 10-C ) :   1.4658
B(  9-C , 43-H ) :   0.9742 B( 10-C , 11-C ) :   1.4175 B( 10-C , 15-H ) :   0.9830
B( 11-C , 12-C ) :   1.4039 B( 11-C , 13-H ) :   0.9644 B( 12-C , 28-C ) :   0.9299
B( 20-S , 21-C ) :   1.2864 B( 20-S , 24-C ) :   1.2695 B( 21-C , 22-N ) :   1.7141
B( 21-C , 31-C ) :   0.9758 B( 22-N , 23-N ) :   1.1051 B( 23-N , 24-C ) :   1.7146
B( 24-C , 25-C ) :   1.0051 B( 25-C , 26-N ) :   1.7115 B( 25-C , 29-S ) :   1.2705
B( 26-N , 27-N ) :   1.0837 B( 27-N , 28-C ) :   1.6590 B( 28-C , 29-S ) :   1.2682
B( 30-C , 31-C ) :   1.3135 B( 30-C , 35-C ) :   1.4148 B( 30-C , 38-O ) :   1.0982
B( 31-C , 32-C ) :   1.3063 B( 32-C , 33-C ) :   1.4309 B( 32-C , 37-O ) :   1.2313
B( 33-C , 34-C ) :   1.3682 B( 33-C , 44-H ) :   0.9073 B( 34-C , 35-C ) :   1.4428
B( 34-C , 36-O ) :   1.1276 B( 35-C , 42-H ) :   0.9410 B( 36-O , 41-H ) :   0.8748
B( 37-O , 40-H ) :   0.8725 B( 38-O , 39-H ) :   0.8673

Dispersion correction           -0.020166014
FINAL SINGLE POINT ENERGY     -2142.065613001817

DIPOLE MOMENT
-------------
                                X             Y             Z
Electronic contribution:     11.00456       1.57717       1.37476
Nuclear contribution   :     -9.35185      -0.57097      -3.21819
                        -----------------------------------------
Total Dipole Moment    :      1.65271       1.00621      -1.84343
                        -----------------------------------------
Magnitude (a.u.)       :      2.67248
Magnitude (Debye)      :      6.79291

                             ****ORCA TERMINATED NORMALLY****
TOTAL RUN TIME: 0 days 0 hours 11 minutes 8 seconds 626 msec
