                         Program Version 4.0.0 -  RELEASE  -
|  1> #
|  2> !wB97X-D3 def2-TZVP def2/J RIJCOSX Grid5 FinalGrid6 TightSCF
|  3> %pal
|  4>  nprocs 24
|  5> end
|  6> %tddft
|  7>   Mode sTDDFT
|  8>   nroots 2
|  9>   Ethresh 10.0
| 10>   maxcore 5000
| 11>   triplets true
| 12> end
| 13> * xyz 0 1
| 14> C -4.39549656 -2.85943458 1.20035652
| 15> C -3.73200610 -1.69631766 0.81817263
| 16> C -4.48448457 -0.54501743 0.51666998
| 17> C -5.90353162 -0.62592613 0.59339763
| 18> C -6.57421139 -1.79505115 0.98395409
| 19> C -5.79768961 -2.90957348 1.28970739
| 20> C -4.17130022 0.80390335 0.06982566
| 21> C -5.42512917 1.45556313 -0.12436960
| 22> N -6.44711616 0.58860802 0.21350838
| 23> C -5.53964074 2.76761505 -0.60754993
| 24> C -4.36064082 3.44127189 -0.91803370
| 25> C -3.11326952 2.83133363 -0.73120059
| 26> C -2.98271134 1.52552611 -0.22239260
| 27> H -2.21238525 3.39341198 -0.96195145
| 28> H -7.43610704 0.79817928 0.15505318
| 29> H -4.40418427 4.45608851 -1.30272364
| 30> H -2.64895429 -1.69287311 0.75229863
| 31> H -7.65897350 -1.82912423 1.03838328
| 32> H -6.28155929 -3.83347095 1.59493002
| 33> H -3.81833430 -3.74956006 1.43475562
| 34> C 4.15309087 0.11248300 -0.27668780
| 35> N 3.83649788 1.02849978 -1.20968950
| 36> O 2.49045618 1.23145197 -1.13667078
| 37> C 1.96777510 0.45495403 -0.17622530
| 38> C 2.97135125 -0.28604259 0.41486073
| 39> C 0.53178194 0.52869256 0.05638218
| 40> N -0.07183260 -0.20895599 1.00032950
| 41> O -1.39415141 0.10016982 0.94557697
| 42> C -1.62569709 1.00952805 -0.01307295
| 43> C -0.42606542 1.33815658 -0.61867901
| 44> H -0.25642869 2.02783236 -1.43238122
| 45> H 2.86751931 -0.99497988 1.22103951
| 46> C 5.54707388 -0.32174361 -0.05962746
| 47> C 6.65626005 0.41761667 -0.56174887
| 48> C 7.98001692 0.00817743 -0.31411352
| 49> C 8.22603729 -1.14711238 0.42157750
| 50> C 7.16400396 -1.90554379 0.92224468
| 51> C 5.84327083 -1.49094008 0.68452149
| 52> O 6.48985794 1.54652106 -1.28104513
| 53> O 4.82736657 -2.25143775 1.17415693
| 54> H 7.35019393 -2.81085674 1.49322868
| 55> H 5.54109778 1.73924428 -1.41497136
| 56> H 5.18460490 -3.02185989 1.63494071
| 57> H 8.79722982 0.60174149 -0.70800621
| 58> H -6.51106447 3.23449014 -0.74316999
| 59> H 9.24767904 -1.46513868 0.60743871
| 60> *
| 61> $new_job
| 62> #
| 63> !wB97X-D3 def2-TZVP def2/J RIJCOSX Grid5 FinalGrid6 TightSCF
| 64> %pal
| 65>  nprocs 24
| 66> end
| 67> %elprop
| 68>    dipole     true
| 69>    quadrupole true
| 70> end
| 71> %tddft
| 72>   Mode sTDDFT
| 73>   nroots 2
| 74>   Ethresh 10.0
| 75>   maxcore 5000
| 76> end
| 77> * xyz 0 1
| 78> C -4.39549656 -2.85943458 1.20035652
| 79> C -3.73200610 -1.69631766 0.81817263
| 80> C -4.48448457 -0.54501743 0.51666998
| 81> C -5.90353162 -0.62592613 0.59339763
| 82> C -6.57421139 -1.79505115 0.98395409
| 83> C -5.79768961 -2.90957348 1.28970739
| 84> C -4.17130022 0.80390335 0.06982566
| 85> C -5.42512917 1.45556313 -0.12436960
| 86> N -6.44711616 0.58860802 0.21350838
| 87> C -5.53964074 2.76761505 -0.60754993
| 88> C -4.36064082 3.44127189 -0.91803370
| 89> C -3.11326952 2.83133363 -0.73120059
| 90> C -2.98271134 1.52552611 -0.22239260
| 91> H -2.21238525 3.39341198 -0.96195145
| 92> H -7.43610704 0.79817928 0.15505318
| 93> H -4.40418427 4.45608851 -1.30272364
| 94> H -2.64895429 -1.69287311 0.75229863
| 95> H -7.65897350 -1.82912423 1.03838328
| 96> H -6.28155929 -3.83347095 1.59493002
| 97> H -3.81833430 -3.74956006 1.43475562
| 98> C 4.15309087 0.11248300 -0.27668780
| 99> N 3.83649788 1.02849978 -1.20968950
|100> O 2.49045618 1.23145197 -1.13667078
|101> C 1.96777510 0.45495403 -0.17622530
|102> C 2.97135125 -0.28604259 0.41486073
|103> C 0.53178194 0.52869256 0.05638218
|104> N -0.07183260 -0.20895599 1.00032950
|105> O -1.39415141 0.10016982 0.94557697
|106> C -1.62569709 1.00952805 -0.01307295
|107> C -0.42606542 1.33815658 -0.61867901
|108> H -0.25642869 2.02783236 -1.43238122
|109> H 2.86751931 -0.99497988 1.22103951
|110> C 5.54707388 -0.32174361 -0.05962746
|111> C 6.65626005 0.41761667 -0.56174887
|112> C 7.98001692 0.00817743 -0.31411352
|113> C 8.22603729 -1.14711238 0.42157750
|114> C 7.16400396 -1.90554379 0.92224468
|115> C 5.84327083 -1.49094008 0.68452149
|116> O 6.48985794 1.54652106 -1.28104513
|117> O 4.82736657 -2.25143775 1.17415693
|118> H 7.35019393 -2.81085674 1.49322868
|119> H 5.54109778 1.73924428 -1.41497136
|120> H 5.18460490 -3.02185989 1.63494071
|121> H 8.79722982 0.60174149 -0.70800621
|122> H -6.51106447 3.23449014 -0.74316999
|123> H 9.24767904 -1.46513868 0.60743871
|124> *
|125>
|126>                          ****END OF INPUT****
 Total Charge           Charge          ....    0
 Multiplicity           Mult            ....    1
 Number of Electrons    NEL             ....  212
Dispersion correction           -0.020090155
FINAL SINGLE POINT ENERGY     -1388.785234359601

CARTESIAN COORDINATES (ANGSTROEM)
---------------------------------
  C     -4.395497   -2.859435    1.200357
  C     -3.732006   -1.696318    0.818173
  C     -4.484485   -0.545017    0.516670
  C     -5.903532   -0.625926    0.593398
  C     -6.574211   -1.795051    0.983954
  C     -5.797690   -2.909573    1.289707
  C     -4.171300    0.803903    0.069826
  C     -5.425129    1.455563   -0.124370
  N     -6.447116    0.588608    0.213508
  C     -5.539641    2.767615   -0.607550
  C     -4.360641    3.441272   -0.918034
  C     -3.113270    2.831334   -0.731201
  C     -2.982711    1.525526   -0.222393
  H     -2.212385    3.393412   -0.961951
  H     -7.436107    0.798179    0.155053
  H     -4.404184    4.456089   -1.302724
  H     -2.648954   -1.692873    0.752299
  H     -7.658973   -1.829124    1.038383
  H     -6.281559   -3.833471    1.594930
  H     -3.818334   -3.749560    1.434756
  C      4.153091    0.112483   -0.276688
  N      3.836498    1.028500   -1.209690
  O      2.490456    1.231452   -1.136671
  C      1.967775    0.454954   -0.176225
  C      2.971351   -0.286043    0.414861
  C      0.531782    0.528693    0.056382
  N     -0.071833   -0.208956    1.000330
  O     -1.394151    0.100170    0.945577
  C     -1.625697    1.009528   -0.013073
  C     -0.426065    1.338157   -0.618679
  H     -0.256429    2.027832   -1.432381
  H      2.867519   -0.994980    1.221040
  C      5.547074   -0.321744   -0.059627
  C      6.656260    0.417617   -0.561749
  C      7.980017    0.008177   -0.314114
  C      8.226037   -1.147112    0.421577
  C      7.164004   -1.905544    0.922245
  C      5.843271   -1.490940    0.684521
  O      6.489858    1.546521   -1.281045
  O      4.827367   -2.251438    1.174157
  H      7.350194   -2.810857    1.493229
  H      5.541098    1.739244   -1.414971
  H      5.184605   -3.021860    1.634941
  H      8.797230    0.601741   -0.708006
  H     -6.511064    3.234490   -0.743170
  H      9.247679   -1.465139    0.607439

 Multiplicity           Mult            ....    1
 Number of Electrons    NEL             ....  212
 Basis Dimension        Dim             .... 1051

ORBITAL ENERGIES
----------------

  NO   OCC          E(Eh)            E(eV)
   0   2.0000     -19.342314      -526.3311
   1   2.0000     -19.341165      -526.2999
   2   2.0000     -19.277383      -524.5643
   3   2.0000     -19.252828      -523.8961
   4   2.0000     -14.486558      -394.1993
   5   2.0000     -14.485162      -394.1613
   6   2.0000     -14.474013      -393.8579
   7   2.0000     -10.371833      -282.2319
   8   2.0000     -10.370951      -282.2079
   9   2.0000     -10.363555      -282.0067
  10   2.0000     -10.358445      -281.8676
  11   2.0000     -10.347907      -281.5809
  12   2.0000     -10.345301      -281.5100
  13   2.0000     -10.337268      -281.2914
  14   2.0000     -10.330418      -281.1050
  15   2.0000     -10.321349      -280.8582
  16   2.0000     -10.307115      -280.4709
  17   2.0000     -10.304843      -280.4090
  18   2.0000     -10.302111      -280.3347
  19   2.0000     -10.300298      -280.2854
  20   2.0000     -10.297594      -280.2118
  21   2.0000     -10.296148      -280.1724
  22   2.0000     -10.295686      -280.1599
  23   2.0000     -10.295283      -280.1489
  24   2.0000     -10.294512      -280.1279
  25   2.0000     -10.289303      -279.9862
  26   2.0000     -10.288007      -279.9509
  27   2.0000     -10.285461      -279.8816
  28   2.0000     -10.281379      -279.7705
  29   2.0000     -10.276823      -279.6466
  30   2.0000     -10.274071      -279.5717
  31   2.0000      -1.291059       -35.1315
  32   2.0000      -1.287444       -35.0331
  33   2.0000      -1.196428       -32.5565
  34   2.0000      -1.174907       -31.9708
  35   2.0000      -1.111381       -30.2422
  36   2.0000      -1.016042       -27.6479
  37   2.0000      -1.000342       -27.2207
  38   2.0000      -0.984849       -26.7991
  39   2.0000      -0.969162       -26.3722
  40   2.0000      -0.967080       -26.3156
  41   2.0000      -0.938541       -25.5390
  42   2.0000      -0.919409       -25.0184
  43   2.0000      -0.905988       -24.6532
  44   2.0000      -0.877018       -23.8649
  45   2.0000      -0.875015       -23.8104
  46   2.0000      -0.853928       -23.2366
  47   2.0000      -0.850570       -23.1452
  48   2.0000      -0.844837       -22.9892
  49   2.0000      -0.781440       -21.2641
  50   2.0000      -0.777964       -21.1695
  51   2.0000      -0.764029       -20.7903
  52   2.0000      -0.747356       -20.3366
  53   2.0000      -0.735054       -20.0018
  54   2.0000      -0.723902       -19.6984
  55   2.0000      -0.720518       -19.6063
  56   2.0000      -0.712990       -19.4015
  57   2.0000      -0.700921       -19.0730
  58   2.0000      -0.684919       -18.6376
  59   2.0000      -0.668016       -18.1776
  60   2.0000      -0.658047       -17.9064
  61   2.0000      -0.632852       -17.2208
  62   2.0000      -0.624396       -16.9907
  63   2.0000      -0.619474       -16.8567
  64   2.0000      -0.612009       -16.6536
  65   2.0000      -0.607601       -16.5337
  66   2.0000      -0.600853       -16.3500
  67   2.0000      -0.599036       -16.3006
  68   2.0000      -0.592260       -16.1162
  69   2.0000      -0.578969       -15.7545
  70   2.0000      -0.567669       -15.4471
  71   2.0000      -0.566932       -15.4270
  72   2.0000      -0.557252       -15.1636
  73   2.0000      -0.551804       -15.0153
  74   2.0000      -0.546546       -14.8723
  75   2.0000      -0.540383       -14.7046
  76   2.0000      -0.536882       -14.6093
  77   2.0000      -0.533559       -14.5189
  78   2.0000      -0.527681       -14.3589
  79   2.0000      -0.525504       -14.2997
  80   2.0000      -0.510584       -13.8937
  81   2.0000      -0.507739       -13.8163
  82   2.0000      -0.501246       -13.6396
  83   2.0000      -0.500343       -13.6150
  84   2.0000      -0.480811       -13.0835
  85   2.0000      -0.476726       -12.9724
  86   2.0000      -0.472056       -12.8453
  87   2.0000      -0.471259       -12.8236
  88   2.0000      -0.469732       -12.7821
  89   2.0000      -0.450222       -12.2512
  90   2.0000      -0.449348       -12.2274
  91   2.0000      -0.447558       -12.1787
  92   2.0000      -0.442010       -12.0277
  93   2.0000      -0.433331       -11.7915
  94   2.0000      -0.424378       -11.5479
  95   2.0000      -0.418290       -11.3823
  96   2.0000      -0.416661       -11.3379
  97   2.0000      -0.411381       -11.1942
  98   2.0000      -0.395463       -10.7611
  99   2.0000      -0.375581       -10.2201
 100   2.0000      -0.347173        -9.4471
 101   2.0000      -0.335803        -9.1377
 102   2.0000      -0.320410        -8.7188
 103   2.0000      -0.304735        -8.2923
 104   2.0000      -0.304442        -8.2843
 105   2.0000      -0.293525        -7.9872
 106   0.0000      -0.003250        -0.0884
 107   0.0000       0.013186         0.3588
 108   0.0000       0.040348         1.0979
 109   0.0000       0.049142         1.3372
 110   0.0000       0.078781         2.1437

MULLIKEN ATOMIC CHARGES
-----------------------
   0 C :   -0.170376
   1 C :   -0.131550
   2 C :   -0.034358
   3 C :    0.169645
   4 C :   -0.236564
   5 C :   -0.081632
   6 C :   -0.025250
   7 C :    0.179559
   8 N :   -0.300908
   9 C :   -0.226873
  10 C :   -0.085605
  11 C :   -0.278228
  12 C :    0.049056
  13 H :    0.126190
  14 H :    0.237427
  15 H :    0.126943
  16 H :    0.148285
  17 H :    0.114654
  18 H :    0.123975
  19 H :    0.120132
  20 C :    0.362699
  21 N :   -0.257793
  22 O :   -0.137778
  23 C :    0.227618
  24 C :   -0.287655
  25 C :    0.157875
  26 N :   -0.171565
  27 O :   -0.129361
  28 C :    0.310037
  29 C :   -0.266806
  30 H :    0.177679
  31 H :    0.182247
  32 C :   -0.206566
  33 C :    0.249749
  34 C :   -0.290573
  35 C :   -0.063688
  36 C :   -0.276174
  37 C :    0.268326
  38 O :   -0.402395
  39 O :   -0.435977
  40 H :    0.105835
  41 H :    0.346829
  42 H :    0.332918
  43 H :    0.130501
  44 H :    0.120267
  45 H :    0.129229
Sum of atomic charges:    0.0000000

LOEWDIN ATOMIC CHARGES
----------------------
   0 C :   -0.156523
   1 C :   -0.096686
   2 C :   -0.080597
   3 C :   -0.144270
   4 C :   -0.133658
   5 C :   -0.138801
   6 C :   -0.034340
   7 C :   -0.143102
   8 N :    0.202066
   9 C :   -0.120236
  10 C :   -0.139850
  11 C :   -0.106614
  12 C :   -0.082455
  13 H :    0.150888
  14 H :    0.193969
  15 H :    0.147873
  16 H :    0.151872
  17 H :    0.143224
  18 H :    0.145159
  19 H :    0.144590
  20 C :   -0.191259
  21 N :    0.000876
  22 O :    0.299176
  23 C :   -0.216466
  24 C :   -0.100699
  25 C :   -0.226151
  26 N :    0.041220
  27 O :    0.311117
  28 C :   -0.197385
  29 C :   -0.117467
  30 H :    0.152661
  31 H :    0.157101
  32 C :   -0.092794
  33 C :   -0.215891
  34 C :   -0.139280
  35 C :   -0.129534
  36 C :   -0.172046
  37 C :   -0.220583
  38 O :    0.106220
  39 O :    0.091371
  40 H :    0.140192
  41 H :    0.178187
  42 H :    0.194890
  43 H :    0.150292
  44 H :    0.145680
  45 H :    0.148065

  Mayer bond orders larger than 0.1
B(  0-C ,  1-C ) :   1.5337 B(  0-C ,  5-C ) :   1.3541 B(  0-C , 19-H ) :   0.9862
B(  1-C ,  2-C ) :   1.2721 B(  1-C , 16-H ) :   0.9374 B(  2-C ,  3-C ) :   1.3650
B(  2-C ,  6-C ) :   1.0766 B(  3-C ,  4-C ) :   1.3034 B(  3-C ,  8-N ) :   1.1181
B(  4-C ,  5-C ) :   1.4811 B(  4-C , 17-H ) :   0.9769 B(  5-C , 18-H ) :   0.9812
B(  6-C ,  7-C ) :   1.3319 B(  6-C , 12-C ) :   1.2482 B(  7-C ,  8-N ) :   1.1565
B(  7-C ,  9-C ) :   1.2838 B(  8-N , 14-H ) :   0.9118 B(  9-C , 10-C ) :   1.4599
B(  9-C , 44-H ) :   0.9764 B( 10-C , 11-C ) :   1.4097 B( 10-C , 15-H ) :   0.9818
B( 11-C , 12-C ) :   1.4462 B( 11-C , 13-H ) :   0.9688 B( 12-C , 28-C ) :   0.9554
B( 20-C , 21-N ) :   1.5293 B( 20-C , 24-C ) :   1.2724 B( 20-C , 32-C ) :   0.9001
B( 21-N , 22-O ) :   0.9783 B( 21-N , 23-C ) :   0.1107 B( 22-O , 23-C ) :   1.1943
B( 23-C , 24-C ) :   1.5889 B( 23-C , 25-C ) :   0.9783 B( 24-C , 31-H ) :   0.9279
B( 25-C , 26-N ) :   1.6502 B( 25-C , 29-C ) :   1.2789 B( 26-N , 27-O ) :   0.9940
B( 26-N , 28-C ) :   0.1242 B( 27-O , 28-C ) :   1.1686 B( 28-C , 29-C ) :   1.5982
B( 29-C , 30-H ) :   0.9166 B( 32-C , 33-C ) :   1.2433 B( 32-C , 37-C ) :   1.3488
B( 33-C , 34-C ) :   1.4207 B( 33-C , 38-O ) :   1.2073 B( 34-C , 35-C ) :   1.4427
B( 34-C , 43-H ) :   0.9799 B( 35-C , 36-C ) :   1.4141 B( 35-C , 45-H ) :   0.9720
B( 36-C , 37-C ) :   1.4075 B( 36-C , 40-H ) :   0.9668 B( 37-C , 39-O ) :   1.0992
B( 38-O , 41-H ) :   0.8088 B( 39-O , 42-H ) :   0.8727

Dispersion correction           -0.020090155
FINAL SINGLE POINT ENERGY     -1388.785234339701

DIPOLE MOMENT
-------------
                                X             Y             Z
Electronic contribution:      2.65043       3.97751      -1.48064
Nuclear contribution   :     -4.30989      -4.31544       1.81191
                        -----------------------------------------
Total Dipole Moment    :     -1.65946      -0.33793       0.33127
                        -----------------------------------------
Magnitude (a.u.)       :      1.72562
Magnitude (Debye)      :      4.38616

                             ****ORCA TERMINATED NORMALLY****
TOTAL RUN TIME: 0 days 0 hours 8 minutes 57 seconds 297 msec
