                         Program Version 4.0.0 -  RELEASE  -
|  1> #
|  2> !wB97X-D3 def2-TZVP def2/J RIJCOSX Grid5 FinalGrid6 TightSCF
|  3> %pal
|  4>  nprocs 24
|  5> end
|  6> %tddft
|  7>   Mode sTDDFT
|  8>   nroots 2
|  9>   Ethresh 10.0
| 10>   maxcore 5000
| 11>   triplets true
| 12> end
| 13> * xyz 0 1
| 14> C -5.14008605 -0.98425102 2.43525715
| 15> C -4.37097844 -0.59679793 1.34112209
| 16> C -5.01729767 -0.14151938 0.17600913
| 17> C -6.43945282 -0.08591973 0.16905921
| 18> C -7.21710638 -0.48241831 1.26783933
| 19> C -6.54483498 -0.93353162 2.40075624
| 20> C -4.57683523 0.35860792 -1.11708219
| 21> C -5.76345333 0.70767425 -1.82832765
| 22> N -6.86628951 0.41733051 -1.04736480
| 23> C -5.75031362 1.27661609 -3.11023623
| 24> C -4.50692077 1.51804751 -3.69075125
| 25> C -3.32409797 1.18866720 -3.01754560
| 26> C -3.32040791 0.59277032 -1.74141400
| 27> H -2.37249109 1.37721304 -3.50937713
| 28> H -7.83004862 0.58112513 -1.31138795
| 29> H -4.44995563 1.96421487 -4.67940780
| 30> H -3.28743122 -0.65084483 1.39074877
| 31> H -8.30224578 -0.43361037 1.23552933
| 32> H -7.11322451 -1.24892470 3.27172847
| 33> H -4.64601261 -1.33740345 3.33625237
| 34> S 2.52425073 -1.11615045 0.88743668
| 35> C 1.71154434 -0.00860391 -0.22005426
| 36> N 2.53338406 0.85977606 -0.80413526
| 37> N 3.83446615 0.71099566 -0.42374091
| 38> C 4.02012389 -0.26778169 0.45125316
| 39> C 0.28766960 -0.04489350 -0.46493837
| 40> N -0.53801727 -0.91060948 0.10861251
| 41> N -1.83987149 -0.75283322 -0.27662709
| 42> C -2.03192195 0.23298956 -1.14083942
| 43> S -0.52126382 1.07142708 -1.57257503
| 44> C 5.28595386 -0.68278143 1.05314823
| 45> N 5.20134898 -1.71025175 1.91788077
| 46> C 6.32880502 -2.16594099 2.52773103
| 47> C 7.58492235 -1.62689516 2.30955364
| 48> C 7.71966037 -0.54129435 1.40474948
| 49> C 6.54530667 -0.05078323 0.75586307
| 50> N 8.95270930 0.02032764 1.16274901
| 51> C 8.98467685 1.03005462 0.30299645
| 52> C 7.81392463 1.51958385 -0.34439701
| 53> N 6.61355026 0.99578117 -0.12845169
| 54> H 6.19987069 -3.00301145 3.22049842
| 55> H 9.95899963 1.49039385 0.09757220
| 56> H 7.88285191 2.35662904 -1.04890664
| 57> H -6.67376426 1.52832076 -3.62406270
| 58> H 8.46020363 -2.02169419 2.81817624
| 59> *
| 60> $new_job
| 61> #
| 62> !wB97X-D3 def2-TZVP def2/J RIJCOSX Grid5 FinalGrid6 TightSCF
| 63> %pal
| 64>  nprocs 24
| 65> end
| 66> %elprop
| 67>    dipole     true
| 68>    quadrupole true
| 69> end
| 70> %tddft
| 71>   Mode sTDDFT
| 72>   nroots 2
| 73>   Ethresh 10.0
| 74>   maxcore 5000
| 75> end
| 76> * xyz 0 1
| 77> C -5.14008605 -0.98425102 2.43525715
| 78> C -4.37097844 -0.59679793 1.34112209
| 79> C -5.01729767 -0.14151938 0.17600913
| 80> C -6.43945282 -0.08591973 0.16905921
| 81> C -7.21710638 -0.48241831 1.26783933
| 82> C -6.54483498 -0.93353162 2.40075624
| 83> C -4.57683523 0.35860792 -1.11708219
| 84> C -5.76345333 0.70767425 -1.82832765
| 85> N -6.86628951 0.41733051 -1.04736480
| 86> C -5.75031362 1.27661609 -3.11023623
| 87> C -4.50692077 1.51804751 -3.69075125
| 88> C -3.32409797 1.18866720 -3.01754560
| 89> C -3.32040791 0.59277032 -1.74141400
| 90> H -2.37249109 1.37721304 -3.50937713
| 91> H -7.83004862 0.58112513 -1.31138795
| 92> H -4.44995563 1.96421487 -4.67940780
| 93> H -3.28743122 -0.65084483 1.39074877
| 94> H -8.30224578 -0.43361037 1.23552933
| 95> H -7.11322451 -1.24892470 3.27172847
| 96> H -4.64601261 -1.33740345 3.33625237
| 97> S 2.52425073 -1.11615045 0.88743668
| 98> C 1.71154434 -0.00860391 -0.22005426
| 99> N 2.53338406 0.85977606 -0.80413526
|100> N 3.83446615 0.71099566 -0.42374091
|101> C 4.02012389 -0.26778169 0.45125316
|102> C 0.28766960 -0.04489350 -0.46493837
|103> N -0.53801727 -0.91060948 0.10861251
|104> N -1.83987149 -0.75283322 -0.27662709
|105> C -2.03192195 0.23298956 -1.14083942
|106> S -0.52126382 1.07142708 -1.57257503
|107> C 5.28595386 -0.68278143 1.05314823
|108> N 5.20134898 -1.71025175 1.91788077
|109> C 6.32880502 -2.16594099 2.52773103
|110> C 7.58492235 -1.62689516 2.30955364
|111> C 7.71966037 -0.54129435 1.40474948
|112> C 6.54530667 -0.05078323 0.75586307
|113> N 8.95270930 0.02032764 1.16274901
|114> C 8.98467685 1.03005462 0.30299645
|115> C 7.81392463 1.51958385 -0.34439701
|116> N 6.61355026 0.99578117 -0.12845169
|117> H 6.19987069 -3.00301145 3.22049842
|118> H 9.95899963 1.49039385 0.09757220
|119> H 7.88285191 2.35662904 -1.04890664
|120> H -6.67376426 1.52832076 -3.62406270
|121> H 8.46020363 -2.02169419 2.81817624
|122> *
|123>
|124>                          ****END OF INPUT****
 Total Charge           Charge          ....    0
 Multiplicity           Mult            ....    1
 Number of Electrons    NEL             ....  238
Dispersion correction           -0.019939163
FINAL SINGLE POINT ENERGY     -2118.122545728660

CARTESIAN COORDINATES (ANGSTROEM)
---------------------------------
  C     -5.140086   -0.984251    2.435257
  C     -4.370978   -0.596798    1.341122
  C     -5.017298   -0.141519    0.176009
  C     -6.439453   -0.085920    0.169059
  C     -7.217106   -0.482418    1.267839
  C     -6.544835   -0.933532    2.400756
  C     -4.576835    0.358608   -1.117082
  C     -5.763453    0.707674   -1.828328
  N     -6.866290    0.417331   -1.047365
  C     -5.750314    1.276616   -3.110236
  C     -4.506921    1.518048   -3.690751
  C     -3.324098    1.188667   -3.017546
  C     -3.320408    0.592770   -1.741414
  H     -2.372491    1.377213   -3.509377
  H     -7.830049    0.581125   -1.311388
  H     -4.449956    1.964215   -4.679408
  H     -3.287431   -0.650845    1.390749
  H     -8.302246   -0.433610    1.235529
  H     -7.113225   -1.248925    3.271728
  H     -4.646013   -1.337403    3.336252
  S      2.524251   -1.116150    0.887437
  C      1.711544   -0.008604   -0.220054
  N      2.533384    0.859776   -0.804135
  N      3.834466    0.710996   -0.423741
  C      4.020124   -0.267782    0.451253
  C      0.287670   -0.044894   -0.464938
  N     -0.538017   -0.910609    0.108613
  N     -1.839871   -0.752833   -0.276627
  C     -2.031922    0.232990   -1.140839
  S     -0.521264    1.071427   -1.572575
  C      5.285954   -0.682781    1.053148
  N      5.201349   -1.710252    1.917881
  C      6.328805   -2.165941    2.527731
  C      7.584922   -1.626895    2.309554
  C      7.719660   -0.541294    1.404749
  C      6.545307   -0.050783    0.755863
  N      8.952709    0.020328    1.162749
  C      8.984677    1.030055    0.302996
  C      7.813925    1.519584   -0.344397
  N      6.613550    0.995781   -0.128452
  H      6.199871   -3.003011    3.220498
  H      9.959000    1.490394    0.097572
  H      7.882852    2.356629   -1.048907
  H     -6.673764    1.528321   -3.624063
  H      8.460204   -2.021694    2.818176

 Multiplicity           Mult            ....    1
 Number of Electrons    NEL             ....  238
 Basis Dimension        Dim             .... 1107

ORBITAL ENERGIES
----------------

  NO   OCC          E(Eh)            E(eV)
   0   2.0000     -89.006160     -2421.9807
   1   2.0000     -89.005610     -2421.9658
   2   2.0000     -14.471715      -393.7954
   3   2.0000     -14.470405      -393.7597
   4   2.0000     -14.469092      -393.7240
   5   2.0000     -14.465842      -393.6356
   6   2.0000     -14.464708      -393.6047
   7   2.0000     -14.462918      -393.5560
   8   2.0000     -14.461054      -393.5053
   9   2.0000     -14.455512      -393.3545
  10   2.0000     -10.377020      -282.3731
  11   2.0000     -10.376527      -282.3597
  12   2.0000     -10.373648      -282.2813
  13   2.0000     -10.370738      -282.2021
  14   2.0000     -10.368793      -282.1492
  15   2.0000     -10.358158      -281.8598
  16   2.0000     -10.355628      -281.7910
  17   2.0000     -10.355405      -281.7849
  18   2.0000     -10.350386      -281.6483
  19   2.0000     -10.341832      -281.4156
  20   2.0000     -10.334486      -281.2157
  21   2.0000     -10.325664      -280.9756
  22   2.0000     -10.320297      -280.8296
  23   2.0000     -10.314302      -280.6664
  24   2.0000     -10.304781      -280.4074
  25   2.0000     -10.299122      -280.2534
  26   2.0000     -10.295727      -280.1610
  27   2.0000     -10.294514      -280.1280
  28   2.0000     -10.288561      -279.9660
  29   2.0000     -10.284067      -279.8437
  30   2.0000     -10.283079      -279.8168
  31   2.0000     -10.276995      -279.6513
  32   2.0000     -10.270347      -279.4703
  33   2.0000      -8.102387      -220.4772
  34   2.0000      -8.101254      -220.4463
  35   2.0000      -6.055442      -164.7769
  36   2.0000      -6.054342      -164.7470
  37   2.0000      -6.051546      -164.6710
  38   2.0000      -6.050336      -164.6380
  39   2.0000      -6.049514      -164.6156
  40   2.0000      -6.048479      -164.5875
  41   2.0000      -1.155630       -31.4463
  42   2.0000      -1.147819       -31.2337
  43   2.0000      -1.120889       -30.5009
  44   2.0000      -1.107634       -30.1402
  45   2.0000      -1.081352       -29.4251
  46   2.0000      -1.044840       -28.4315
  47   2.0000      -0.993070       -27.0228
  48   2.0000      -0.977626       -26.6026
  49   2.0000      -0.963708       -26.2238
  50   2.0000      -0.951767       -25.8989
  51   2.0000      -0.939014       -25.5519
  52   2.0000      -0.933553       -25.4033
  53   2.0000      -0.912989       -24.8437
  54   2.0000      -0.901167       -24.5220
  55   2.0000      -0.894378       -24.3373
  56   2.0000      -0.874457       -23.7952
  57   2.0000      -0.846518       -23.0349
  58   2.0000      -0.840881       -22.8815
  59   2.0000      -0.821055       -22.3420
  60   2.0000      -0.795373       -21.6432
  61   2.0000      -0.784118       -21.3369
  62   2.0000      -0.777049       -21.1446
  63   2.0000      -0.759801       -20.6752
  64   2.0000      -0.730292       -19.8723
  65   2.0000      -0.723601       -19.6902
  66   2.0000      -0.714178       -19.4338
  67   2.0000      -0.703466       -19.1423
  68   2.0000      -0.681997       -18.5581
  69   2.0000      -0.668313       -18.1857
  70   2.0000      -0.662933       -18.0393
  71   2.0000      -0.656077       -17.8528
  72   2.0000      -0.648604       -17.6494
  73   2.0000      -0.630057       -17.1447
  74   2.0000      -0.623683       -16.9713
  75   2.0000      -0.616098       -16.7649
  76   2.0000      -0.603270       -16.4158
  77   2.0000      -0.581929       -15.8351
  78   2.0000      -0.577886       -15.7251
  79   2.0000      -0.575036       -15.6475
  80   2.0000      -0.568187       -15.4612
  81   2.0000      -0.565045       -15.3757
  82   2.0000      -0.563712       -15.3394
  83   2.0000      -0.556031       -15.1304
  84   2.0000      -0.550052       -14.9677
  85   2.0000      -0.540408       -14.7053
  86   2.0000      -0.539776       -14.6881
  87   2.0000      -0.537004       -14.6126
  88   2.0000      -0.531408       -14.4603
  89   2.0000      -0.527956       -14.3664
  90   2.0000      -0.524778       -14.2799
  91   2.0000      -0.518833       -14.1182
  92   2.0000      -0.510384       -13.8883
  93   2.0000      -0.503674       -13.7057
  94   2.0000      -0.501066       -13.6347
  95   2.0000      -0.477148       -12.9838
  96   2.0000      -0.471565       -12.8319
  97   2.0000      -0.467944       -12.7334
  98   2.0000      -0.459696       -12.5090
  99   2.0000      -0.445708       -12.1283
 100   2.0000      -0.444477       -12.0948
 101   2.0000      -0.434956       -11.8357
 102   2.0000      -0.433058       -11.7841
 103   2.0000      -0.421120       -11.4593
 104   2.0000      -0.419371       -11.4117
 105   2.0000      -0.403510       -10.9801
 106   2.0000      -0.399145       -10.8613
 107   2.0000      -0.392610       -10.6834
 108   2.0000      -0.389570       -10.6007
 109   2.0000      -0.383582       -10.4378
 110   2.0000      -0.381864       -10.3910
 111   2.0000      -0.373225       -10.1560
 112   2.0000      -0.369808       -10.0630
 113   2.0000      -0.365035        -9.9331
 114   2.0000      -0.350622        -9.5409
 115   2.0000      -0.343735        -9.3535
 116   2.0000      -0.323342        -8.7986
 117   2.0000      -0.300114        -8.1665
 118   2.0000      -0.290100        -7.8940
 119   0.0000      -0.052480        -1.4281
 120   0.0000      -0.021637        -0.5888
 121   0.0000       0.010231         0.2784
 122   0.0000       0.013449         0.3660
 123   0.0000       0.036616         0.9964

MULLIKEN ATOMIC CHARGES
-----------------------
   0 C :   -0.174037
   1 C :   -0.139302
   2 C :   -0.028573
   3 C :    0.176073
   4 C :   -0.244634
   5 C :   -0.075291
   6 C :   -0.016991
   7 C :    0.186092
   8 N :   -0.303140
   9 C :   -0.220603
  10 C :   -0.098994
  11 C :   -0.277096
  12 C :    0.129320
  13 H :    0.131659
  14 H :    0.236988
  15 H :    0.126857
  16 H :    0.157096
  17 H :    0.112281
  18 H :    0.121773
  19 H :    0.119138
  20 S :    0.116098
  21 C :    0.111145
  22 N :   -0.201383
  23 N :   -0.067973
  24 C :    0.069623
  25 C :    0.115550
  26 N :   -0.167600
  27 N :   -0.192340
  28 C :    0.145271
  29 S :    0.064665
  30 C :    0.167634
  31 N :   -0.330452
  32 C :   -0.026019
  33 C :   -0.181993
  34 C :    0.150839
  35 C :    0.087257
  36 N :   -0.245705
  37 C :    0.019332
  38 C :   -0.041306
  39 N :   -0.221948
  40 H :    0.143954
  41 H :    0.147781
  42 H :    0.147249
  43 H :    0.121454
  44 H :    0.150247
Sum of atomic charges:   -0.0000000

LOEWDIN ATOMIC CHARGES
----------------------
   0 C :   -0.157678
   1 C :   -0.091438
   2 C :   -0.077859
   3 C :   -0.144476
   4 C :   -0.136549
   5 C :   -0.138997
   6 C :   -0.028012
   7 C :   -0.143269
   8 N :    0.201520
   9 C :   -0.117873
  10 C :   -0.141365
  11 C :   -0.122874
  12 C :   -0.116193
  13 H :    0.145541
  14 H :    0.193546
  15 H :    0.147882
  16 H :    0.154152
  17 H :    0.142451
  18 H :    0.144500
  19 H :    0.144172
  20 S :    0.765689
  21 C :   -0.457535
  22 N :    0.040803
  23 N :    0.066060
  24 C :   -0.398100
  25 C :   -0.459694
  26 N :    0.046644
  27 N :    0.047567
  28 C :   -0.373992
  29 S :    0.740023
  30 C :   -0.171443
  31 N :    0.150454
  32 C :   -0.187949
  33 C :   -0.101350
  34 C :   -0.162970
  35 C :   -0.137440
  36 N :    0.169137
  37 C :   -0.183902
  38 C :   -0.189864
  39 N :    0.200821
  40 H :    0.145616
  41 H :    0.145572
  42 H :    0.146377
  43 H :    0.145758
  44 H :    0.156537

  Mayer bond orders larger than 0.1
B(  0-C ,  1-C ) :   1.5373 B(  0-C ,  5-C ) :   1.3509 B(  0-C , 19-H ) :   0.9877
B(  1-C ,  2-C ) :   1.2629 B(  1-C , 16-H ) :   0.9385 B(  2-C ,  3-C ) :   1.3549
B(  2-C ,  6-C ) :   1.0767 B(  3-C ,  4-C ) :   1.2974 B(  3-C ,  8-N ) :   1.1145
B(  4-C ,  5-C ) :   1.4795 B(  4-C , 17-H ) :   0.9795 B(  5-C , 18-H ) :   0.9824
B(  6-C ,  7-C ) :   1.3203 B(  6-C , 12-C ) :   1.2414 B(  7-C ,  8-N ) :   1.1552
B(  7-C ,  9-C ) :   1.2868 B(  8-N , 14-H ) :   0.9130 B(  9-C , 10-C ) :   1.4659
B(  9-C , 43-H ) :   0.9744 B( 10-C , 11-C ) :   1.4202 B( 10-C , 15-H ) :   0.9812
B( 11-C , 12-C ) :   1.4011 B( 11-C , 13-H ) :   0.9587 B( 12-C , 28-C ) :   0.9363
B( 20-S , 21-C ) :   1.3328 B( 20-S , 24-C ) :   1.3237 B( 21-C , 22-N ) :   1.6755
B( 21-C , 25-C ) :   0.9416 B( 22-N , 23-N ) :   1.1371 B( 23-N , 24-C ) :   1.7236
B( 24-C , 30-C ) :   1.0032 B( 25-C , 26-N ) :   1.7077 B( 25-C , 29-S ) :   1.3036
B( 26-N , 27-N ) :   1.1235 B( 27-N , 28-C ) :   1.6431 B( 28-C , 29-S ) :   1.2945
B( 30-C , 31-N ) :   1.4762 B( 30-C , 35-C ) :   1.2146 B( 30-C , 39-N ) :  -0.1096
B( 31-N , 32-C ) :   1.4047 B( 32-C , 33-C ) :   1.5345 B( 32-C , 40-H ) :   0.9793
B( 33-C , 34-C ) :   1.2931 B( 33-C , 44-H ) :   0.9523 B( 34-C , 35-C ) :   1.2803
B( 34-C , 36-N ) :   1.2917 B( 35-C , 39-N ) :   1.3179 B( 36-N , 37-C ) :   1.6212
B( 37-C , 38-C ) :   1.2217 B( 37-C , 41-H ) :   0.9602 B( 38-C , 39-N ) :   1.6639
B( 38-C , 42-H ) :   0.9651

Dispersion correction           -0.019939163
FINAL SINGLE POINT ENERGY     -2118.122545619732

DIPOLE MOMENT
-------------
                                X             Y             Z
Electronic contribution:     16.40497      -0.21142      -1.86602
Nuclear contribution   :    -16.45877       0.76448       1.49924
                        -----------------------------------------
Total Dipole Moment    :     -0.05380       0.55306      -0.36678
                        -----------------------------------------
Magnitude (a.u.)       :      0.66581
Magnitude (Debye)      :      1.69235

                             ****ORCA TERMINATED NORMALLY****
TOTAL RUN TIME: 0 days 0 hours 11 minutes 55 seconds 320 msec
