                         Program Version 4.0.0 -  RELEASE  -
|  1> #
|  2> !wB97X-D3 def2-TZVP def2/J RIJCOSX Grid5 FinalGrid6 TightSCF
|  3> %pal
|  4>  nprocs 24
|  5> end
|  6> %tddft
|  7>   Mode sTDDFT
|  8>   nroots 2
|  9>   Ethresh 10.0
| 10>   maxcore 5000
| 11>   triplets true
| 12> end
| 13> * xyz 0 1
| 14> C 6.80699810 2.66331192 1.45529921
| 15> C 6.53468701 1.38333102 0.97898343
| 16> C 7.57171675 0.63924981 0.38619456
| 17> C 8.87424658 1.21012304 0.33166030
| 18> C 9.14913485 2.50260245 0.80419154
| 19> C 8.09392632 3.22193465 1.35973175
| 20> C 7.68238081 -0.69539932 -0.17762771
| 21> C 9.05715776 -0.87456546 -0.50644863
| 22> N 9.74864177 0.28790470 -0.21733216
| 23> C 9.56466139 -2.07864710 -1.01782196
| 24> C 8.66816660 -3.13187572 -1.18666168
| 25> C 7.30718717 -2.97921212 -0.88656564
| 26> C 6.78154756 -1.76742125 -0.40346157
| 27> H 6.62965430 -3.81127504 -1.05600125
| 28> H 10.74428573 0.42377889 -0.34277456
| 29> H 9.02380617 -4.08448560 -1.56888487
| 30> H 5.53732666 0.96855917 1.08778563
| 31> H 10.15018357 2.92150023 0.74715172
| 32> H 8.26959993 4.22552243 1.73752606
| 33> H 6.01069408 3.24287934 1.91367087
| 34> C -0.28839435 -0.03117661 -0.23465567
| 35> N 0.44662759 1.03135390 -0.59617813
| 36> O 1.74750630 0.63341392 -0.58837670
| 37> C 1.83216411 -0.65776540 -0.22821719
| 38> C 0.56435461 -1.14764381 0.01388009
| 39> C 3.15425192 -1.26469721 -0.16140217
| 40> N 3.33164826 -2.54453059 0.19771130
| 41> O 4.66947569 -2.77835778 0.14679736
| 42> C 5.32816629 -1.66460515 -0.21696908
| 43> C 4.41182154 -0.65410999 -0.43934691
| 44> H 4.59594536 0.34917263 -0.79308191
| 45> H 0.29941449 -2.14922856 0.31948999
| 46> C -5.99358238 2.32559731 1.46912792
| 47> C -6.61200587 1.47248163 0.53305257
| 48> C -7.86002913 1.84088032 -0.00841541
| 49> C -8.46923159 3.03063716 0.38361993
| 50> C -7.84956655 3.87511711 1.30812981
| 51> C -6.61051546 3.51658212 1.84489795
| 52> N -5.98723681 0.25834550 0.14155789
| 53> C -6.77969682 -0.88209763 -0.15656007
| 54> C -6.38021029 -1.78833357 -1.15942394
| 55> C -7.16056355 -2.90670145 -1.44322410
| 56> C -8.34923107 -3.13902240 -0.74677462
| 57> C -8.75236989 -2.24119958 0.24482090
| 58> C -7.97769777 -1.12330797 0.54569242
| 59> C -4.57386824 0.18484417 0.04895558
| 60> C -3.89468145 -1.01158719 0.35840848
| 61> C -2.50906175 -1.07910726 0.26206545
| 62> C -1.75194966 0.03798072 -0.13621356
| 63> C -2.43563487 1.23079862 -0.44036205
| 64> C -3.82034459 1.30731406 -0.35462929
| 65> H -4.45772604 -1.88271788 0.68109335
| 66> H -2.00525957 -2.00977958 0.51048973
| 67> H -1.86821675 2.10133195 -0.75781552
| 68> H -4.32862508 2.23371781 -0.60706467
| 69> H -5.46437485 -1.60812849 -1.71516951
| 70> H -6.84344388 -3.59642591 -2.22116631
| 71> H -8.95542096 -4.01088967 -0.97465259
| 72> H -9.67248446 -2.41809332 0.79584253
| 73> H -8.29206024 -0.43716339 1.32703597
| 74> H -8.34274075 1.19634867 -0.73758704
| 75> H -9.43014584 3.30541620 -0.04377817
| 76> H -6.12493957 4.16459220 2.56998543
| 77> H -5.03644706 2.04811524 1.90152426
| 78> H 10.61788463 -2.18833097 -1.26026424
| 79> H -8.32750680 4.80334406 1.60733490
| 80> *
| 81> $new_job
| 82> #
| 83> !wB97X-D3 def2-TZVP def2/J RIJCOSX Grid5 FinalGrid6 TightSCF
| 84> %pal
| 85>  nprocs 24
| 86> end
| 87> %elprop
| 88>    dipole     true
| 89>    quadrupole true
| 90> end
| 91> %tddft
| 92>   Mode sTDDFT
| 93>   nroots 2
| 94>   Ethresh 10.0
| 95>   maxcore 5000
| 96> end
| 97> * xyz 0 1
| 98> C 6.80699810 2.66331192 1.45529921
| 99> C 6.53468701 1.38333102 0.97898343
|100> C 7.57171675 0.63924981 0.38619456
|101> C 8.87424658 1.21012304 0.33166030
|102> C 9.14913485 2.50260245 0.80419154
|103> C 8.09392632 3.22193465 1.35973175
|104> C 7.68238081 -0.69539932 -0.17762771
|105> C 9.05715776 -0.87456546 -0.50644863
|106> N 9.74864177 0.28790470 -0.21733216
|107> C 9.56466139 -2.07864710 -1.01782196
|108> C 8.66816660 -3.13187572 -1.18666168
|109> C 7.30718717 -2.97921212 -0.88656564
|110> C 6.78154756 -1.76742125 -0.40346157
|111> H 6.62965430 -3.81127504 -1.05600125
|112> H 10.74428573 0.42377889 -0.34277456
|113> H 9.02380617 -4.08448560 -1.56888487
|114> H 5.53732666 0.96855917 1.08778563
|115> H 10.15018357 2.92150023 0.74715172
|116> H 8.26959993 4.22552243 1.73752606
|117> H 6.01069408 3.24287934 1.91367087
|118> C -0.28839435 -0.03117661 -0.23465567
|119> N 0.44662759 1.03135390 -0.59617813
|120> O 1.74750630 0.63341392 -0.58837670
|121> C 1.83216411 -0.65776540 -0.22821719
|122> C 0.56435461 -1.14764381 0.01388009
|123> C 3.15425192 -1.26469721 -0.16140217
|124> N 3.33164826 -2.54453059 0.19771130
|125> O 4.66947569 -2.77835778 0.14679736
|126> C 5.32816629 -1.66460515 -0.21696908
|127> C 4.41182154 -0.65410999 -0.43934691
|128> H 4.59594536 0.34917263 -0.79308191
|129> H 0.29941449 -2.14922856 0.31948999
|130> C -5.99358238 2.32559731 1.46912792
|131> C -6.61200587 1.47248163 0.53305257
|132> C -7.86002913 1.84088032 -0.00841541
|133> C -8.46923159 3.03063716 0.38361993
|134> C -7.84956655 3.87511711 1.30812981
|135> C -6.61051546 3.51658212 1.84489795
|136> N -5.98723681 0.25834550 0.14155789
|137> C -6.77969682 -0.88209763 -0.15656007
|138> C -6.38021029 -1.78833357 -1.15942394
|139> C -7.16056355 -2.90670145 -1.44322410
|140> C -8.34923107 -3.13902240 -0.74677462
|141> C -8.75236989 -2.24119958 0.24482090
|142> C -7.97769777 -1.12330797 0.54569242
|143> C -4.57386824 0.18484417 0.04895558
|144> C -3.89468145 -1.01158719 0.35840848
|145> C -2.50906175 -1.07910726 0.26206545
|146> C -1.75194966 0.03798072 -0.13621356
|147> C -2.43563487 1.23079862 -0.44036205
|148> C -3.82034459 1.30731406 -0.35462929
|149> H -4.45772604 -1.88271788 0.68109335
|150> H -2.00525957 -2.00977958 0.51048973
|151> H -1.86821675 2.10133195 -0.75781552
|152> H -4.32862508 2.23371781 -0.60706467
|153> H -5.46437485 -1.60812849 -1.71516951
|154> H -6.84344388 -3.59642591 -2.22116631
|155> H -8.95542096 -4.01088967 -0.97465259
|156> H -9.67248446 -2.41809332 0.79584253
|157> H -8.29206024 -0.43716339 1.32703597
|158> H -8.34274075 1.19634867 -0.73758704
|159> H -9.43014584 3.30541620 -0.04377817
|160> H -6.12493957 4.16459220 2.56998543
|161> H -5.03644706 2.04811524 1.90152426
|162> H 10.61788463 -2.18833097 -1.26026424
|163> H -8.32750680 4.80334406 1.60733490
|164> *
|165>
|166>                          ****END OF INPUT****
 Total Charge           Charge          ....    0
 Multiplicity           Mult            ....    1
 Number of Electrons    NEL             ....  284
Dispersion correction           -0.031528984
FINAL SINGLE POINT ENERGY     -1755.785406470966

CARTESIAN COORDINATES (ANGSTROEM)
---------------------------------
  C      6.806998    2.663312    1.455299
  C      6.534687    1.383331    0.978983
  C      7.571717    0.639250    0.386195
  C      8.874247    1.210123    0.331660
  C      9.149135    2.502602    0.804192
  C      8.093926    3.221935    1.359732
  C      7.682381   -0.695399   -0.177628
  C      9.057158   -0.874565   -0.506449
  N      9.748642    0.287905   -0.217332
  C      9.564661   -2.078647   -1.017822
  C      8.668167   -3.131876   -1.186662
  C      7.307187   -2.979212   -0.886566
  C      6.781548   -1.767421   -0.403462
  H      6.629654   -3.811275   -1.056001
  H     10.744286    0.423779   -0.342775
  H      9.023806   -4.084486   -1.568885
  H      5.537327    0.968559    1.087786
  H     10.150184    2.921500    0.747152
  H      8.269600    4.225522    1.737526
  H      6.010694    3.242879    1.913671
  C     -0.288394   -0.031177   -0.234656
  N      0.446628    1.031354   -0.596178
  O      1.747506    0.633414   -0.588377
  C      1.832164   -0.657765   -0.228217
  C      0.564355   -1.147644    0.013880
  C      3.154252   -1.264697   -0.161402
  N      3.331648   -2.544531    0.197711
  O      4.669476   -2.778358    0.146797
  C      5.328166   -1.664605   -0.216969
  C      4.411822   -0.654110   -0.439347
  H      4.595945    0.349173   -0.793082
  H      0.299414   -2.149229    0.319490
  C     -5.993582    2.325597    1.469128
  C     -6.612006    1.472482    0.533053
  C     -7.860029    1.840880   -0.008415
  C     -8.469232    3.030637    0.383620
  C     -7.849567    3.875117    1.308130
  C     -6.610515    3.516582    1.844898
  N     -5.987237    0.258346    0.141558
  C     -6.779697   -0.882098   -0.156560
  C     -6.380210   -1.788334   -1.159424
  C     -7.160564   -2.906701   -1.443224
  C     -8.349231   -3.139022   -0.746775
  C     -8.752370   -2.241200    0.244821
  C     -7.977698   -1.123308    0.545692
  C     -4.573868    0.184844    0.048956
  C     -3.894681   -1.011587    0.358408
  C     -2.509062   -1.079107    0.262065
  C     -1.751950    0.037981   -0.136214
  C     -2.435635    1.230799   -0.440362
  C     -3.820345    1.307314   -0.354629
  H     -4.457726   -1.882718    0.681093
  H     -2.005260   -2.009780    0.510490
  H     -1.868217    2.101332   -0.757816
  H     -4.328625    2.233718   -0.607065
  H     -5.464375   -1.608128   -1.715170
  H     -6.843444   -3.596426   -2.221166
  H     -8.955421   -4.010890   -0.974653
  H     -9.672484   -2.418093    0.795843
  H     -8.292060   -0.437163    1.327036
  H     -8.342741    1.196349   -0.737587
  H     -9.430146    3.305416   -0.043778
  H     -6.124940    4.164592    2.569985
  H     -5.036447    2.048115    1.901524
  H     10.617885   -2.188331   -1.260264
  H     -8.327507    4.803344    1.607335

 Multiplicity           Mult            ....    1
 Number of Electrons    NEL             ....  284
 Basis Dimension        Dim             .... 1446

ORBITAL ENERGIES
----------------

  NO   OCC          E(Eh)            E(eV)
   0   2.0000     -19.337879      -526.2104
   1   2.0000     -19.332917      -526.0754
   2   2.0000     -14.482809      -394.0973
   3   2.0000     -14.475092      -393.8873
   4   2.0000     -14.472230      -393.8094
   5   2.0000     -14.464526      -393.5998
   6   2.0000     -10.367387      -282.1109
   7   2.0000     -10.366316      -282.0818
   8   2.0000     -10.343643      -281.4648
   9   2.0000     -10.337163      -281.2885
  10   2.0000     -10.336841      -281.2797
  11   2.0000     -10.333022      -281.1758
  12   2.0000     -10.332706      -281.1672
  13   2.0000     -10.332682      -281.1666
  14   2.0000     -10.330415      -281.1049
  15   2.0000     -10.318706      -280.7863
  16   2.0000     -10.305730      -280.4332
  17   2.0000     -10.300808      -280.2992
  18   2.0000     -10.299096      -280.2526
  19   2.0000     -10.298521      -280.2370
  20   2.0000     -10.297088      -280.1980
  21   2.0000     -10.295774      -280.1622
  22   2.0000     -10.295368      -280.1512
  23   2.0000     -10.295019      -280.1417
  24   2.0000     -10.292400      -280.0704
  25   2.0000     -10.291420      -280.0438
  26   2.0000     -10.290734      -280.0251
  27   2.0000     -10.290646      -280.0227
  28   2.0000     -10.290148      -280.0092
  29   2.0000     -10.288177      -279.9555
  30   2.0000     -10.287528      -279.9379
  31   2.0000     -10.287500      -279.9371
  32   2.0000     -10.287086      -279.9259
  33   2.0000     -10.287019      -279.9240
  34   2.0000     -10.286866      -279.9199
  35   2.0000     -10.284965      -279.8681
  36   2.0000     -10.284809      -279.8639
  37   2.0000     -10.284544      -279.8567
  38   2.0000     -10.284485      -279.8551
  39   2.0000     -10.281418      -279.7716
  40   2.0000     -10.281062      -279.7619
  41   2.0000     -10.280983      -279.7598
  42   2.0000      -1.285533       -34.9811
  43   2.0000      -1.279287       -34.8112
  44   2.0000      -1.112163       -30.2635
  45   2.0000      -1.093956       -29.7681
  46   2.0000      -1.011454       -27.5231
  47   2.0000      -0.999245       -27.1909
  48   2.0000      -0.983262       -26.7559
  49   2.0000      -0.979257       -26.6469
  50   2.0000      -0.973830       -26.4992
  51   2.0000      -0.972100       -26.4522
  52   2.0000      -0.957173       -26.0460
  53   2.0000      -0.934874       -25.4392
  54   2.0000      -0.914865       -24.8947
  55   2.0000      -0.905133       -24.6299
  56   2.0000      -0.883406       -24.0387
  57   2.0000      -0.882021       -24.0010
  58   2.0000      -0.876968       -23.8635
  59   2.0000      -0.866874       -23.5888
  60   2.0000      -0.864970       -23.5370
  61   2.0000      -0.863601       -23.4998
  62   2.0000      -0.851783       -23.1782
  63   2.0000      -0.845635       -23.0109
  64   2.0000      -0.830880       -22.6094
  65   2.0000      -0.777532       -21.1577
  66   2.0000      -0.772328       -21.0161
  67   2.0000      -0.763128       -20.7658
  68   2.0000      -0.747161       -20.3313
  69   2.0000      -0.740341       -20.1457
  70   2.0000      -0.728570       -19.8254
  71   2.0000      -0.722238       -19.6531
  72   2.0000      -0.719260       -19.5721
  73   2.0000      -0.716902       -19.5079
  74   2.0000      -0.714103       -19.4317
  75   2.0000      -0.706134       -19.2149
  76   2.0000      -0.692803       -18.8521
  77   2.0000      -0.685406       -18.6508
  78   2.0000      -0.673561       -18.3285
  79   2.0000      -0.666148       -18.1268
  80   2.0000      -0.644186       -17.5292
  81   2.0000      -0.641893       -17.4668
  82   2.0000      -0.636870       -17.3301
  83   2.0000      -0.620300       -16.8792
  84   2.0000      -0.614174       -16.7125
  85   2.0000      -0.604599       -16.4520
  86   2.0000      -0.603982       -16.4352
  87   2.0000      -0.597116       -16.2484
  88   2.0000      -0.588031       -16.0011
  89   2.0000      -0.586891       -15.9701
  90   2.0000      -0.578182       -15.7331
  91   2.0000      -0.573376       -15.6024
  92   2.0000      -0.567833       -15.4515
  93   2.0000      -0.565830       -15.3970
  94   2.0000      -0.558965       -15.2102
  95   2.0000      -0.556530       -15.1439
  96   2.0000      -0.552714       -15.0401
  97   2.0000      -0.550478       -14.9793
  98   2.0000      -0.545612       -14.8469
  99   2.0000      -0.539534       -14.6815
 100   2.0000      -0.539144       -14.6709
 101   2.0000      -0.532714       -14.4959
 102   2.0000      -0.530243       -14.4286
 103   2.0000      -0.528841       -14.3905
 104   2.0000      -0.526429       -14.3249
 105   2.0000      -0.525597       -14.3022
 106   2.0000      -0.524127       -14.2622
 107   2.0000      -0.521589       -14.1932
 108   2.0000      -0.507233       -13.8025
 109   2.0000      -0.496497       -13.5104
 110   2.0000      -0.490904       -13.3582
 111   2.0000      -0.484128       -13.1738
 112   2.0000      -0.478494       -13.0205
 113   2.0000      -0.475271       -12.9328
 114   2.0000      -0.474029       -12.8990
 115   2.0000      -0.473104       -12.8738
 116   2.0000      -0.469344       -12.7715
 117   2.0000      -0.459081       -12.4922
 118   2.0000      -0.456195       -12.4137
 119   2.0000      -0.452060       -12.3012
 120   2.0000      -0.450316       -12.2537
 121   2.0000      -0.448390       -12.2013
 122   2.0000      -0.441810       -12.0223
 123   2.0000      -0.439884       -11.9699
 124   2.0000      -0.438503       -11.9323
 125   2.0000      -0.435581       -11.8527
 126   2.0000      -0.426625       -11.6091
 127   2.0000      -0.413022       -11.2389
 128   2.0000      -0.402713       -10.9584
 129   2.0000      -0.400577       -10.9003
 130   2.0000      -0.392553       -10.6819
 131   2.0000      -0.375600       -10.2206
 132   2.0000      -0.355336        -9.6692
 133   2.0000      -0.351149        -9.5552
 134   2.0000      -0.346144        -9.4191
 135   2.0000      -0.343058        -9.3351
 136   2.0000      -0.341486        -9.2923
 137   2.0000      -0.336331        -9.1520
 138   2.0000      -0.329438        -8.9645
 139   2.0000      -0.305431        -8.3112
 140   2.0000      -0.294897        -8.0246
 141   2.0000      -0.265797        -7.2327
 142   0.0000      -0.000158        -0.0043
 143   0.0000       0.014429         0.3926
 144   0.0000       0.030522         0.8305
 145   0.0000       0.042048         1.1442
 146   0.0000       0.044418         1.2087

MULLIKEN ATOMIC CHARGES
-----------------------
   0 C :   -0.162396
   1 C :   -0.223402
   2 C :   -0.043469
   3 C :    0.169639
   4 C :   -0.228855
   5 C :   -0.086454
   6 C :   -0.024590
   7 C :    0.173183
   8 N :   -0.298671
   9 C :   -0.228238
  10 C :   -0.074645
  11 C :   -0.277233
  12 C :    0.096784
  13 H :    0.140555
  14 H :    0.238001
  15 H :    0.128797
  16 H :    0.204480
  17 H :    0.118278
  18 H :    0.125550
  19 H :    0.123396
  20 C :    0.337754
  21 N :   -0.165230
  22 O :   -0.130183
  23 C :    0.220344
  24 C :   -0.312772
  25 C :    0.181217
  26 N :   -0.177113
  27 O :   -0.112775
  28 C :    0.310116
  29 C :   -0.416697
  30 H :    0.216953
  31 H :    0.168631
  32 C :   -0.311686
  33 C :    0.218476
  34 C :   -0.313898
  35 C :   -0.068057
  36 C :   -0.162940
  37 C :   -0.073546
  38 N :    0.057098
  39 C :    0.215941
  40 C :   -0.315261
  41 C :   -0.071145
  42 C :   -0.163102
  43 C :   -0.066012
  44 C :   -0.313818
  45 C :    0.185998
  46 C :   -0.301045
  47 C :   -0.153443
  48 C :   -0.029013
  49 C :   -0.175706
  50 C :   -0.265546
  51 H :    0.161221
  52 H :    0.120702
  53 H :    0.152865
  54 H :    0.162032
  55 H :    0.162144
  56 H :    0.126437
  57 H :    0.123100
  58 H :    0.125846
  59 H :    0.160749
  60 H :    0.161515
  61 H :    0.126313
  62 H :    0.126818
  63 H :    0.162350
  64 H :    0.120108
  65 H :    0.123552
Sum of atomic charges:   -0.0000000

LOEWDIN ATOMIC CHARGES
----------------------
   0 C :   -0.155178
   1 C :   -0.104438
   2 C :   -0.080978
   3 C :   -0.143641
   4 C :   -0.130651
   5 C :   -0.138232
   6 C :   -0.037581
   7 C :   -0.143102
   8 N :    0.201751
   9 C :   -0.121096
  10 C :   -0.137997
  11 C :   -0.105055
  12 C :   -0.083227
  13 H :    0.153729
  14 H :    0.194063
  15 H :    0.147973
  16 H :    0.152512
  17 H :    0.143952
  18 H :    0.145809
  19 H :    0.145441
  20 C :   -0.209528
  21 N :    0.032936
  22 O :    0.298334
  23 C :   -0.221002
  24 C :   -0.108887
  25 C :   -0.229552
  26 N :    0.041417
  27 O :    0.308007
  28 C :   -0.197052
  29 C :   -0.123514
  30 H :    0.156874
  31 H :    0.151382
  32 C :   -0.116587
  33 C :   -0.164217
  34 C :   -0.116303
  35 C :   -0.141177
  36 C :   -0.153136
  37 C :   -0.140637
  38 N :    0.277156
  39 C :   -0.164192
  40 C :   -0.116957
  41 C :   -0.141163
  42 C :   -0.153322
  43 C :   -0.141136
  44 C :   -0.116278
  45 C :   -0.157254
  46 C :   -0.113714
  47 C :   -0.094423
  48 C :   -0.124202
  49 C :   -0.081948
  50 C :   -0.111111
  51 H :    0.158214
  52 H :    0.149961
  53 H :    0.157793
  54 H :    0.158619
  55 H :    0.156368
  56 H :    0.146278
  57 H :    0.143199
  58 H :    0.146148
  59 H :    0.156511
  60 H :    0.156452
  61 H :    0.146128
  62 H :    0.146412
  63 H :    0.156511
  64 H :    0.145315
  65 H :    0.143223

  Mayer bond orders larger than 0.1
B(  0-C ,  1-C ) :   1.5438 B(  0-C ,  5-C ) :   1.3574 B(  0-C , 19-H ) :   0.9838
B(  1-C ,  2-C ) :   1.2646 B(  1-C , 16-H ) :   0.9227 B(  2-C ,  3-C ) :   1.3794
B(  2-C ,  6-C ) :   1.0508 B(  3-C ,  4-C ) :   1.3062 B(  3-C ,  8-N ) :   1.1225
B(  4-C ,  5-C ) :   1.4879 B(  4-C , 17-H ) :   0.9752 B(  5-C , 18-H ) :   0.9804
B(  6-C ,  7-C ) :   1.3338 B(  6-C , 12-C ) :   1.2412 B(  7-C ,  8-N ) :   1.1553
B(  7-C ,  9-C ) :   1.2882 B(  8-N , 14-H ) :   0.9112 B(  9-C , 10-C ) :   1.4630
B(  9-C , 64-H ) :   0.9742 B( 10-C , 11-C ) :   1.3874 B( 10-C , 15-H ) :   0.9829
B( 11-C , 12-C ) :   1.4614 B( 11-C , 13-H ) :   0.9644 B( 12-C , 28-C ) :   0.9423
B( 20-C , 21-N ) :   1.6370 B( 20-C , 24-C ) :   1.2489 B( 20-C , 48-C ) :   0.9298
B( 21-N , 22-O ) :   0.9835 B( 21-N , 23-C ) :   0.1134 B( 22-O , 23-C ) :   1.2008
B( 23-C , 24-C ) :   1.6456 B( 23-C , 25-C ) :   0.9795 B( 24-C , 31-H ) :   0.9100
B( 25-C , 26-N ) :   1.6856 B( 25-C , 29-C ) :   1.2437 B( 26-N , 27-O ) :   1.0055
B( 26-N , 28-C ) :   0.1341 B( 27-O , 28-C ) :   1.1863 B( 28-C , 29-C ) :   1.5964
B( 29-C , 30-H ) :   0.9221 B( 32-C , 33-C ) :   1.3459 B( 32-C , 37-C ) :   1.4326
B( 32-C , 63-H ) :   0.9696 B( 33-C , 34-C ) :   1.3501 B( 33-C , 38-N ) :   1.0248
B( 34-C , 35-C ) :   1.4319 B( 34-C , 60-H ) :   0.9709 B( 35-C , 36-C ) :   1.3973
B( 35-C , 61-H ) :   0.9803 B( 36-C , 37-C ) :   1.3992 B( 36-C , 65-H ) :   0.9815
B( 37-C , 62-H ) :   0.9800 B( 38-N , 39-C ) :   1.0272 B( 38-N , 45-C ) :   1.0559
B( 39-C , 40-C ) :   1.3448 B( 39-C , 44-C ) :   1.3487 B( 40-C , 41-C ) :   1.4325
B( 40-C , 55-H ) :   0.9697 B( 41-C , 42-C ) :   1.3990 B( 41-C , 56-H ) :   0.9799
B( 42-C , 43-C ) :   1.3971 B( 42-C , 57-H ) :   0.9813 B( 43-C , 44-C ) :   1.4341
B( 43-C , 58-H ) :   0.9798 B( 44-C , 59-H ) :   0.9710 B( 45-C , 46-C ) :   1.3450
B( 45-C , 50-C ) :   1.3316 B( 46-C , 47-C ) :   1.4751 B( 46-C , 51-H ) :   0.9774
B( 47-C , 48-C ) :   1.3682 B( 47-C , 52-H ) :   0.9709 B( 48-C , 49-C ) :   1.4229
B( 49-C , 50-C ) :   1.4531 B( 49-C , 53-H ) :   0.9616 B( 50-C , 54-H ) :   0.9829

Dispersion correction           -0.031528984
FINAL SINGLE POINT ENERGY     -1755.785406504873

DIPOLE MOMENT
-------------
                                X             Y             Z
Electronic contribution:     26.74631      -5.54745      -2.23903
Nuclear contribution   :    -25.62494       5.67789       2.14985
                        -----------------------------------------
Total Dipole Moment    :      1.12137       0.13044      -0.08918
                        -----------------------------------------
Magnitude (a.u.)       :      1.13245
Magnitude (Debye)      :      2.87846

                             ****ORCA TERMINATED NORMALLY****
TOTAL RUN TIME: 0 days 0 hours 20 minutes 4 seconds 200 msec
