                         Program Version 4.0.0 -  RELEASE  -
|  1> #
|  2> !wB97X-D3 def2-TZVP def2/J RIJCOSX Grid5 FinalGrid6 TightSCF
|  3> %pal
|  4>  nprocs 24
|  5> end
|  6> %tddft
|  7>   Mode sTDDFT
|  8>   nroots 2
|  9>   Ethresh 10.0
| 10>   maxcore 5000
| 11>   triplets true
| 12> end
| 13> * xyz 0 1
| 14> C -4.48032161 -1.47795817 -2.49251453
| 15> C -4.17427920 -0.91408109 -1.25649367
| 16> C -5.17823705 -0.22354574 -0.55241431
| 17> C -6.48430900 -0.16164430 -1.11437882
| 18> C -6.79292670 -0.72263981 -2.36313978
| 19> C -5.76903878 -1.37482650 -3.04564937
| 20> C -5.25074506 0.44718533 0.73454549
| 21> C -6.60928729 0.84400137 0.89928397
| 22> N -7.32538303 0.49265514 -0.23068386
| 23> C -7.08188908 1.46818482 2.06372109
| 24> C -6.16699582 1.68293780 3.09247724
| 25> C -4.82078683 1.31738667 2.95202485
| 26> C -4.32905783 0.72004041 1.77750926
| 27> H -4.12725026 1.52419005 3.76216133
| 28> H -8.31688047 0.64689254 -0.36726135
| 29> H -6.49596284 2.15263530 4.01507803
| 30> H -3.17713457 -1.03010524 -0.84315098
| 31> H -7.79586358 -0.65846205 -2.77644619
| 32> H -5.97136739 -1.82280201 -4.01474925
| 33> H -3.70964033 -2.01203210 -3.04107596
| 34> C 2.70640481 0.13266505 -0.00304956
| 35> N 1.97361943 0.43912599 -1.08716632
| 36> O 0.67886087 0.51394537 -0.67499649
| 37> C 0.59604113 0.26000315 0.64183706
| 38> C 1.85921500 0.00690866 1.13784712
| 39> C -0.72040792 0.29404878 1.26359941
| 40> N -0.89644788 0.04392558 2.56927504
| 41> O -2.22827939 0.16659095 2.81003310
| 42> C -2.88546132 0.46792201 1.67692734
| 43> C -1.97320578 0.57338247 0.64398508
| 44> H -2.15518289 0.85433831 -0.38243959
| 45> H 2.13313638 -0.23056799 2.15577764
| 46> S 5.09609749 -0.43404792 1.36987683
| 47> C 6.56681453 -0.42474054 0.43372522
| 48> C 6.32712781 -0.12666845 -0.90387672
| 49> C 4.95680936 0.09826673 -1.19366831
| 50> C 4.14919248 -0.02901435 -0.07187232
| 51> C 7.98234024 -0.63387096 0.61786939
| 52> C 8.62402858 -0.46643403 -0.60290959
| 53> C 7.62251295 -0.12783703 -1.68131120
| 54> C 10.03344515 -0.65364745 -0.52389732
| 55> C 10.44546288 -0.96061171 0.75373472
| 56> S 9.10648136 -1.02656630 1.89136306
| 57> H 10.71544916 -0.56785718 -1.36287267
| 58> H 4.55978260 0.34342443 -2.17251652
| 59> H 7.82666011 0.84324853 -2.15033502
| 60> H 7.61892989 -0.86557206 -2.49396420
| 61> H -8.12337675 1.76059219 2.16318059
| 62> H 11.46130641 -1.14906467 1.07690103
| 63> *
| 64> $new_job
| 65> #
| 66> !wB97X-D3 def2-TZVP def2/J RIJCOSX Grid5 FinalGrid6 TightSCF
| 67> %pal
| 68>  nprocs 24
| 69> end
| 70> %elprop
| 71>    dipole     true
| 72>    quadrupole true
| 73> end
| 74> %tddft
| 75>   Mode sTDDFT
| 76>   nroots 2
| 77>   Ethresh 10.0
| 78>   maxcore 5000
| 79> end
| 80> * xyz 0 1
| 81> C -4.48032161 -1.47795817 -2.49251453
| 82> C -4.17427920 -0.91408109 -1.25649367
| 83> C -5.17823705 -0.22354574 -0.55241431
| 84> C -6.48430900 -0.16164430 -1.11437882
| 85> C -6.79292670 -0.72263981 -2.36313978
| 86> C -5.76903878 -1.37482650 -3.04564937
| 87> C -5.25074506 0.44718533 0.73454549
| 88> C -6.60928729 0.84400137 0.89928397
| 89> N -7.32538303 0.49265514 -0.23068386
| 90> C -7.08188908 1.46818482 2.06372109
| 91> C -6.16699582 1.68293780 3.09247724
| 92> C -4.82078683 1.31738667 2.95202485
| 93> C -4.32905783 0.72004041 1.77750926
| 94> H -4.12725026 1.52419005 3.76216133
| 95> H -8.31688047 0.64689254 -0.36726135
| 96> H -6.49596284 2.15263530 4.01507803
| 97> H -3.17713457 -1.03010524 -0.84315098
| 98> H -7.79586358 -0.65846205 -2.77644619
| 99> H -5.97136739 -1.82280201 -4.01474925
|100> H -3.70964033 -2.01203210 -3.04107596
|101> C 2.70640481 0.13266505 -0.00304956
|102> N 1.97361943 0.43912599 -1.08716632
|103> O 0.67886087 0.51394537 -0.67499649
|104> C 0.59604113 0.26000315 0.64183706
|105> C 1.85921500 0.00690866 1.13784712
|106> C -0.72040792 0.29404878 1.26359941
|107> N -0.89644788 0.04392558 2.56927504
|108> O -2.22827939 0.16659095 2.81003310
|109> C -2.88546132 0.46792201 1.67692734
|110> C -1.97320578 0.57338247 0.64398508
|111> H -2.15518289 0.85433831 -0.38243959
|112> H 2.13313638 -0.23056799 2.15577764
|113> S 5.09609749 -0.43404792 1.36987683
|114> C 6.56681453 -0.42474054 0.43372522
|115> C 6.32712781 -0.12666845 -0.90387672
|116> C 4.95680936 0.09826673 -1.19366831
|117> C 4.14919248 -0.02901435 -0.07187232
|118> C 7.98234024 -0.63387096 0.61786939
|119> C 8.62402858 -0.46643403 -0.60290959
|120> C 7.62251295 -0.12783703 -1.68131120
|121> C 10.03344515 -0.65364745 -0.52389732
|122> C 10.44546288 -0.96061171 0.75373472
|123> S 9.10648136 -1.02656630 1.89136306
|124> H 10.71544916 -0.56785718 -1.36287267
|125> H 4.55978260 0.34342443 -2.17251652
|126> H 7.82666011 0.84324853 -2.15033502
|127> H 7.61892989 -0.86557206 -2.49396420
|128> H -8.12337675 1.76059219 2.16318059
|129> H 11.46130641 -1.14906467 1.07690103
|130> *
|131>
|132>                          ****END OF INPUT****
 Total Charge           Charge          ....    0
 Multiplicity           Mult            ....    1
 Number of Electrons    NEL             ....  246
Dispersion correction           -0.022070119
FINAL SINGLE POINT ENERGY     -2149.013308972779

CARTESIAN COORDINATES (ANGSTROEM)
---------------------------------
  C     -4.480322   -1.477958   -2.492515
  C     -4.174279   -0.914081   -1.256494
  C     -5.178237   -0.223546   -0.552414
  C     -6.484309   -0.161644   -1.114379
  C     -6.792927   -0.722640   -2.363140
  C     -5.769039   -1.374826   -3.045649
  C     -5.250745    0.447185    0.734545
  C     -6.609287    0.844001    0.899284
  N     -7.325383    0.492655   -0.230684
  C     -7.081889    1.468185    2.063721
  C     -6.166996    1.682938    3.092477
  C     -4.820787    1.317387    2.952025
  C     -4.329058    0.720040    1.777509
  H     -4.127250    1.524190    3.762161
  H     -8.316880    0.646893   -0.367261
  H     -6.495963    2.152635    4.015078
  H     -3.177135   -1.030105   -0.843151
  H     -7.795864   -0.658462   -2.776446
  H     -5.971367   -1.822802   -4.014749
  H     -3.709640   -2.012032   -3.041076
  C      2.706405    0.132665   -0.003050
  N      1.973619    0.439126   -1.087166
  O      0.678861    0.513945   -0.674996
  C      0.596041    0.260003    0.641837
  C      1.859215    0.006909    1.137847
  C     -0.720408    0.294049    1.263599
  N     -0.896448    0.043926    2.569275
  O     -2.228279    0.166591    2.810033
  C     -2.885461    0.467922    1.676927
  C     -1.973206    0.573382    0.643985
  H     -2.155183    0.854338   -0.382440
  H      2.133136   -0.230568    2.155778
  S      5.096097   -0.434048    1.369877
  C      6.566815   -0.424741    0.433725
  C      6.327128   -0.126668   -0.903877
  C      4.956809    0.098267   -1.193668
  C      4.149192   -0.029014   -0.071872
  C      7.982340   -0.633871    0.617869
  C      8.624029   -0.466434   -0.602910
  C      7.622513   -0.127837   -1.681311
  C     10.033445   -0.653647   -0.523897
  C     10.445463   -0.960612    0.753735
  S      9.106481   -1.026566    1.891363
  H     10.715449   -0.567857   -1.362873
  H      4.559783    0.343424   -2.172517
  H      7.826660    0.843249   -2.150335
  H      7.618930   -0.865572   -2.493964
  H     -8.123377    1.760592    2.163181
  H     11.461306   -1.149065    1.076901

 Multiplicity           Mult            ....    1
 Number of Electrons    NEL             ....  246
 Basis Dimension        Dim             .... 1156

ORBITAL ENERGIES
----------------

  NO   OCC          E(Eh)            E(eV)
   0   2.0000     -88.991425     -2421.5798
   1   2.0000     -88.987554     -2421.4745
   2   2.0000     -19.338629      -526.2309
   3   2.0000     -19.335661      -526.1501
   4   2.0000     -14.483662      -394.1205
   5   2.0000     -14.475385      -393.8952
   6   2.0000     -14.475350      -393.8943
   7   2.0000     -10.368924      -282.1528
   8   2.0000     -10.368016      -282.1281
   9   2.0000     -10.344630      -281.4917
  10   2.0000     -10.339018      -281.3390
  11   2.0000     -10.337108      -281.2870
  12   2.0000     -10.332981      -281.1747
  13   2.0000     -10.329527      -281.0807
  14   2.0000     -10.328870      -281.0628
  15   2.0000     -10.324425      -280.9419
  16   2.0000     -10.319025      -280.7950
  17   2.0000     -10.316722      -280.7323
  18   2.0000     -10.306045      -280.4418
  19   2.0000     -10.304626      -280.4031
  20   2.0000     -10.299350      -280.2596
  21   2.0000     -10.299269      -280.2574
  22   2.0000     -10.298128      -280.2263
  23   2.0000     -10.298073      -280.2248
  24   2.0000     -10.297412      -280.2068
  25   2.0000     -10.297390      -280.2062
  26   2.0000     -10.297228      -280.2018
  27   2.0000     -10.295999      -280.1684
  28   2.0000     -10.294611      -280.1306
  29   2.0000     -10.292679      -280.0780
  30   2.0000     -10.291703      -280.0515
  31   2.0000     -10.291065      -280.0341
  32   2.0000     -10.290938      -280.0307
  33   2.0000     -10.281388      -279.7708
  34   2.0000      -8.087215      -220.0643
  35   2.0000      -8.083322      -219.9584
  36   2.0000      -6.040579      -164.3725
  37   2.0000      -6.036759      -164.2686
  38   2.0000      -6.036605      -164.2644
  39   2.0000      -6.034106      -164.1964
  40   2.0000      -6.032533      -164.1536
  41   2.0000      -6.030336      -164.0938
  42   2.0000      -1.286344       -35.0032
  43   2.0000      -1.281495       -34.8712
  44   2.0000      -1.112435       -30.2709
  45   2.0000      -1.034533       -28.1511
  46   2.0000      -1.012504       -27.5516
  47   2.0000      -1.001687       -27.2573
  48   2.0000      -0.985163       -26.8077
  49   2.0000      -0.976709       -26.5776
  50   2.0000      -0.972482       -26.4626
  51   2.0000      -0.937300       -25.5052
  52   2.0000      -0.926557       -25.2129
  53   2.0000      -0.914641       -24.8887
  54   2.0000      -0.905545       -24.6411
  55   2.0000      -0.877648       -23.8820
  56   2.0000      -0.875736       -23.8300
  57   2.0000      -0.852166       -23.1886
  58   2.0000      -0.850643       -23.1472
  59   2.0000      -0.845934       -23.0190
  60   2.0000      -0.817765       -22.2525
  61   2.0000      -0.799842       -21.7648
  62   2.0000      -0.777001       -21.1433
  63   2.0000      -0.771678       -20.9984
  64   2.0000      -0.754430       -20.5291
  65   2.0000      -0.735011       -20.0007
  66   2.0000      -0.728150       -19.8140
  67   2.0000      -0.719864       -19.5885
  68   2.0000      -0.707118       -19.2417
  69   2.0000      -0.691020       -18.8036
  70   2.0000      -0.675952       -18.3936
  71   2.0000      -0.667721       -18.1696
  72   2.0000      -0.665028       -18.0963
  73   2.0000      -0.641950       -17.4683
  74   2.0000      -0.635706       -17.2984
  75   2.0000      -0.620455       -16.8834
  76   2.0000      -0.614793       -16.7294
  77   2.0000      -0.609367       -16.5817
  78   2.0000      -0.605356       -16.4726
  79   2.0000      -0.597018       -16.2457
  80   2.0000      -0.590124       -16.0581
  81   2.0000      -0.589852       -16.0507
  82   2.0000      -0.569017       -15.4837
  83   2.0000      -0.567991       -15.4558
  84   2.0000      -0.565169       -15.3790
  85   2.0000      -0.564280       -15.3548
  86   2.0000      -0.556029       -15.1303
  87   2.0000      -0.552990       -15.0476
  88   2.0000      -0.545336       -14.8394
  89   2.0000      -0.539501       -14.6806
  90   2.0000      -0.534139       -14.5347
  91   2.0000      -0.526281       -14.3208
  92   2.0000      -0.515070       -14.0158
  93   2.0000      -0.509296       -13.8587
  94   2.0000      -0.505417       -13.7531
  95   2.0000      -0.492425       -13.3996
  96   2.0000      -0.491311       -13.3692
  97   2.0000      -0.480608       -13.0780
  98   2.0000      -0.476371       -12.9627
  99   2.0000      -0.476105       -12.9555
 100   2.0000      -0.474319       -12.9069
 101   2.0000      -0.473197       -12.8763
 102   2.0000      -0.469912       -12.7870
 103   2.0000      -0.465152       -12.6574
 104   2.0000      -0.450761       -12.2658
 105   2.0000      -0.448783       -12.2120
 106   2.0000      -0.442685       -12.0461
 107   2.0000      -0.442140       -12.0313
 108   2.0000      -0.437373       -11.9015
 109   2.0000      -0.433887       -11.8067
 110   2.0000      -0.419055       -11.4031
 111   2.0000      -0.413690       -11.2571
 112   2.0000      -0.406780       -11.0690
 113   2.0000      -0.392936       -10.6923
 114   2.0000      -0.376042       -10.2326
 115   2.0000      -0.360367        -9.8061
 116   2.0000      -0.349321        -9.5055
 117   2.0000      -0.342909        -9.3310
 118   2.0000      -0.339401        -9.2356
 119   2.0000      -0.333796        -9.0830
 120   2.0000      -0.305720        -8.3191
 121   2.0000      -0.295223        -8.0334
 122   2.0000      -0.276594        -7.5265
 123   0.0000      -0.001037        -0.0282
 124   0.0000       0.000754         0.0205
 125   0.0000       0.023079         0.6280
 126   0.0000       0.048140         1.3100
 127   0.0000       0.065958         1.7948

MULLIKEN ATOMIC CHARGES
-----------------------
   0 C :   -0.163343
   1 C :   -0.223073
   2 C :   -0.048636
   3 C :    0.170698
   4 C :   -0.226335
   5 C :   -0.088381
   6 C :   -0.014095
   7 C :    0.171690
   8 N :   -0.300255
   9 C :   -0.230247
  10 C :   -0.073656
  11 C :   -0.275755
  12 C :    0.086445
  13 H :    0.141024
  14 H :    0.238360
  15 H :    0.128887
  16 H :    0.204326
  17 H :    0.118327
  18 H :    0.125757
  19 H :    0.123314
  20 C :    0.338079
  21 N :   -0.170985
  22 O :   -0.125302
  23 C :    0.243384
  24 C :   -0.308467
  25 C :    0.140378
  26 N :   -0.178546
  27 O :   -0.111283
  28 C :    0.314830
  29 C :   -0.412643
  30 H :    0.217215
  31 H :    0.179405
  32 S :    0.049019
  33 C :    0.091057
  34 C :    0.084242
  35 C :   -0.344036
  36 C :   -0.023184
  37 C :   -0.209282
  38 C :    0.009416
  39 C :   -0.141211
  40 C :   -0.217127
  41 C :   -0.189010
  42 S :    0.071060
  43 H :    0.136166
  44 H :    0.156267
  45 H :    0.126176
  46 H :    0.126787
  47 H :    0.120369
  48 H :    0.162174
Sum of atomic charges:   -0.0000000

LOEWDIN ATOMIC CHARGES
----------------------
   0 C :   -0.155248
   1 C :   -0.104507
   2 C :   -0.081041
   3 C :   -0.143587
   4 C :   -0.130541
   5 C :   -0.138237
   6 C :   -0.037591
   7 C :   -0.143075
   8 N :    0.201789
   9 C :   -0.120920
  10 C :   -0.137778
  11 C :   -0.104794
  12 C :   -0.083317
  13 H :    0.153827
  14 H :    0.194098
  15 H :    0.148052
  16 H :    0.152440
  17 H :    0.143976
  18 H :    0.145828
  19 H :    0.145431
  20 C :   -0.256528
  21 N :    0.032469
  22 O :    0.299530
  23 C :   -0.219450
  24 C :   -0.114365
  25 C :   -0.229814
  26 N :    0.042900
  27 O :    0.308743
  28 C :   -0.196595
  29 C :   -0.123537
  30 H :    0.156861
  31 H :    0.152684
  32 S :    0.733268
  33 C :   -0.322319
  34 C :   -0.141202
  35 C :   -0.111064
  36 C :   -0.317392
  37 C :   -0.332990
  38 C :   -0.144209
  39 C :   -0.152831
  40 C :   -0.179698
  41 C :   -0.374672
  42 S :    0.694402
  43 H :    0.144858
  44 H :    0.154859
  45 H :    0.158709
  46 H :    0.158701
  47 H :    0.145391
  48 H :    0.128484

  Mayer bond orders larger than 0.1
B(  0-C ,  1-C ) :   1.5455 B(  0-C ,  5-C ) :   1.3570 B(  0-C , 19-H ) :   0.9838
B(  1-C ,  2-C ) :   1.2632 B(  1-C , 16-H ) :   0.9228 B(  2-C ,  3-C ) :   1.3783
B(  2-C ,  6-C ) :   1.0523 B(  3-C ,  4-C ) :   1.3064 B(  3-C ,  8-N ) :   1.1214
B(  4-C ,  5-C ) :   1.4872 B(  4-C , 17-H ) :   0.9750 B(  5-C , 18-H ) :   0.9808
B(  6-C ,  7-C ) :   1.3329 B(  6-C , 12-C ) :   1.2434 B(  7-C ,  8-N ) :   1.1553
B(  7-C ,  9-C ) :   1.2880 B(  8-N , 14-H ) :   0.9115 B(  9-C , 10-C ) :   1.4621
B(  9-C , 47-H ) :   0.9747 B( 10-C , 11-C ) :   1.3866 B( 10-C , 15-H ) :   0.9835
B( 11-C , 12-C ) :   1.4606 B( 11-C , 13-H ) :   0.9639 B( 12-C , 28-C ) :   0.9429
B( 20-C , 21-N ) :   1.6570 B( 20-C , 24-C ) :   1.2442 B( 20-C , 32-S ) :  -0.1731
B( 20-C , 36-C ) :   0.9049 B( 21-N , 22-O ) :   0.9776 B( 21-N , 23-C ) :   0.1201
B( 22-O , 23-C ) :   1.1971 B( 23-C , 24-C ) :   1.6489 B( 23-C , 25-C ) :   1.0019
B( 24-C , 31-H ) :   0.9071 B( 25-C , 26-N ) :   1.6899 B( 25-C , 29-C ) :   1.2376
B( 26-N , 27-O ) :   1.0065 B( 26-N , 28-C ) :   0.1340 B( 27-O , 28-C ) :   1.1848
B( 28-C , 29-C ) :   1.5939 B( 29-C , 30-H ) :   0.9231 B( 32-S , 33-C ) :   1.3382
B( 32-S , 35-C ) :   0.1333 B( 32-S , 36-C ) :   1.2966 B( 33-C , 34-C ) :   1.4994
B( 33-C , 37-C ) :   0.9039 B( 34-C , 35-C ) :   1.2161 B( 34-C , 36-C ) :  -0.1235
B( 34-C , 39-C ) :   1.1026 B( 35-C , 36-C ) :   1.6132 B( 35-C , 44-H ) :   0.9600
B( 37-C , 38-C ) :   1.5480 B( 37-C , 42-S ) :   1.3397 B( 38-C , 39-C ) :   1.0884
B( 38-C , 40-C ) :   1.2045 B( 39-C , 45-H ) :   0.8958 B( 39-C , 46-H ) :   0.8994
B( 40-C , 41-C ) :   1.7216 B( 40-C , 42-S ) :   0.1436 B( 40-C , 43-H ) :   0.9627
B( 41-C , 42-S ) :   1.2296 B( 41-C , 48-H ) :   0.9413

Dispersion correction           -0.022070119
FINAL SINGLE POINT ENERGY     -2149.013308959145

DIPOLE MOMENT
-------------
                                X             Y             Z
Electronic contribution:     14.27618      -0.27031      10.74991
Nuclear contribution   :    -15.31748       0.51623     -11.51932
                        -----------------------------------------
Total Dipole Moment    :     -1.04130       0.24592      -0.76941
                        -----------------------------------------
Magnitude (a.u.)       :      1.31787
Magnitude (Debye)      :      3.34975

                             ****ORCA TERMINATED NORMALLY****
TOTAL RUN TIME: 0 days 0 hours 11 minutes 57 seconds 948 msec
