                         Program Version 4.0.0 -  RELEASE  -
|  1> #
|  2> !wB97X-D3 def2-TZVP def2/J RIJCOSX Grid5 FinalGrid6 TightSCF
|  3> %pal
|  4>  nprocs 24
|  5> end
|  6> %tddft
|  7>   Mode sTDDFT
|  8>   nroots 2
|  9>   Ethresh 10.0
| 10>   maxcore 5000
| 11>   triplets true
| 12> end
| 13> * xyz 0 1
| 14> C 7.32005621 3.82037142 -0.42972854
| 15> C 6.91115384 2.49043382 -0.37612620
| 16> C 7.88522841 1.47368633 -0.37154222
| 17> C 9.25695147 1.85104663 -0.41174718
| 18> C 9.67155751 3.19028320 -0.47284670
| 19> C 8.68115550 4.16909170 -0.48227939
| 20> C 7.85713923 0.02096618 -0.29810682
| 21> C 9.22100641 -0.39783412 -0.27905824
| 22> N 10.04091122 0.71151690 -0.36529094
| 23> C 9.61022374 -1.74044994 -0.16459272
| 24> C 8.59915853 -2.69226500 -0.04950491
| 25> C 7.25133723 -2.31313053 -0.06292838
| 26> C 6.84319596 -0.97236096 -0.20354030
| 27> H 6.48987685 -3.08604080 0.01317593
| 28> H 11.05331666 0.69303912 -0.35975613
| 29> H 8.85548080 -3.74323550 0.04859660
| 30> H 5.85328719 2.24710623 -0.34243905
| 31> H 10.72590901 3.45145144 -0.50644706
| 32> H 8.96361961 5.21752456 -0.52884808
| 33> H 6.57205247 4.60841790 -0.43480913
| 34> S 0.91940198 -2.22903931 0.95498682
| 35> C -0.69442616 -1.54879117 0.63249584
| 36> N -0.65325423 -0.41816849 -0.06897105
| 37> N 0.60741244 -0.02141598 -0.39287655
| 38> C 1.55642876 -0.83574124 0.05222316
| 39> C 2.97379437 -0.63546606 -0.15713868
| 40> N 3.49533826 0.38408620 -0.82688837
| 41> N 4.85990690 0.35159791 -0.88537372
| 42> C 5.40795935 -0.68028477 -0.26269982
| 43> S 4.19098447 -1.75917885 0.47169404
| 44> C -7.76056095 0.42684294 1.04594948
| 45> C -9.11183282 0.74754594 1.15771368
| 46> C -10.07893347 -0.25941867 1.12452749
| 47> C -9.68713841 -1.59322089 0.99707573
| 48> C -8.33587978 -1.91879412 0.89393296
| 49> C -7.35585045 -0.91214710 0.89922368
| 50> C -5.91535488 -1.28556772 0.81209901
| 51> C -4.95162488 -0.48086974 0.05295683
| 52> N -3.63989333 -0.70199847 0.13434513
| 53> C -3.23663143 -1.76980625 0.89540503
| 54> C -4.19379142 -2.64595988 1.52722989
| 55> N -5.54448898 -2.36550399 1.49539318
| 56> C -1.90249995 -2.17557724 1.09812189
| 57> S -1.87145360 -3.64198946 2.05289255
| 58> C -3.60027306 -3.71746129 2.19296674
| 59> C -5.37798076 0.59645199 -0.88164189
| 60> C -4.58319961 1.74873671 -1.01141753
| 61> C -4.94479797 2.76341367 -1.89507210
| 62> C -6.09570511 2.63661830 -2.67523141
| 63> C -6.87720695 1.48347567 -2.57633073
| 64> C -6.52365693 0.46973975 -1.68828262
| 65> H -7.12689396 -0.43314325 -1.63524144
| 66> H -7.76316844 1.37168729 -3.19612889
| 67> H -6.37715729 3.42769327 -3.36551816
| 68> H -4.32631281 3.65336097 -1.97953456
| 69> H -3.68415155 1.83988615 -0.40769247
| 70> H -8.02691289 -2.95655344 0.79798739
| 71> H -10.43647751 -2.38072760 0.98102120
| 72> H -11.13270183 -0.00576592 1.20590161
| 73> H -9.41148608 1.78597482 1.27304429
| 74> H -7.01373984 1.21571874 1.08882727
| 75> H 10.65887302 -2.02398753 -0.15543171
| 76> H -4.09728007 -4.50597049 2.74367625
| 77> *
| 78> $new_job
| 79> #
| 80> !wB97X-D3 def2-TZVP def2/J RIJCOSX Grid5 FinalGrid6 TightSCF
| 81> %pal
| 82>  nprocs 24
| 83> end
| 84> %elprop
| 85>    dipole     true
| 86>    quadrupole true
| 87> end
| 88> %tddft
| 89>   Mode sTDDFT
| 90>   nroots 2
| 91>   Ethresh 10.0
| 92>   maxcore 5000
| 93> end
| 94> * xyz 0 1
| 95> C 7.32005621 3.82037142 -0.42972854
| 96> C 6.91115384 2.49043382 -0.37612620
| 97> C 7.88522841 1.47368633 -0.37154222
| 98> C 9.25695147 1.85104663 -0.41174718
| 99> C 9.67155751 3.19028320 -0.47284670
|100> C 8.68115550 4.16909170 -0.48227939
|101> C 7.85713923 0.02096618 -0.29810682
|102> C 9.22100641 -0.39783412 -0.27905824
|103> N 10.04091122 0.71151690 -0.36529094
|104> C 9.61022374 -1.74044994 -0.16459272
|105> C 8.59915853 -2.69226500 -0.04950491
|106> C 7.25133723 -2.31313053 -0.06292838
|107> C 6.84319596 -0.97236096 -0.20354030
|108> H 6.48987685 -3.08604080 0.01317593
|109> H 11.05331666 0.69303912 -0.35975613
|110> H 8.85548080 -3.74323550 0.04859660
|111> H 5.85328719 2.24710623 -0.34243905
|112> H 10.72590901 3.45145144 -0.50644706
|113> H 8.96361961 5.21752456 -0.52884808
|114> H 6.57205247 4.60841790 -0.43480913
|115> S 0.91940198 -2.22903931 0.95498682
|116> C -0.69442616 -1.54879117 0.63249584
|117> N -0.65325423 -0.41816849 -0.06897105
|118> N 0.60741244 -0.02141598 -0.39287655
|119> C 1.55642876 -0.83574124 0.05222316
|120> C 2.97379437 -0.63546606 -0.15713868
|121> N 3.49533826 0.38408620 -0.82688837
|122> N 4.85990690 0.35159791 -0.88537372
|123> C 5.40795935 -0.68028477 -0.26269982
|124> S 4.19098447 -1.75917885 0.47169404
|125> C -7.76056095 0.42684294 1.04594948
|126> C -9.11183282 0.74754594 1.15771368
|127> C -10.07893347 -0.25941867 1.12452749
|128> C -9.68713841 -1.59322089 0.99707573
|129> C -8.33587978 -1.91879412 0.89393296
|130> C -7.35585045 -0.91214710 0.89922368
|131> C -5.91535488 -1.28556772 0.81209901
|132> C -4.95162488 -0.48086974 0.05295683
|133> N -3.63989333 -0.70199847 0.13434513
|134> C -3.23663143 -1.76980625 0.89540503
|135> C -4.19379142 -2.64595988 1.52722989
|136> N -5.54448898 -2.36550399 1.49539318
|137> C -1.90249995 -2.17557724 1.09812189
|138> S -1.87145360 -3.64198946 2.05289255
|139> C -3.60027306 -3.71746129 2.19296674
|140> C -5.37798076 0.59645199 -0.88164189
|141> C -4.58319961 1.74873671 -1.01141753
|142> C -4.94479797 2.76341367 -1.89507210
|143> C -6.09570511 2.63661830 -2.67523141
|144> C -6.87720695 1.48347567 -2.57633073
|145> C -6.52365693 0.46973975 -1.68828262
|146> H -7.12689396 -0.43314325 -1.63524144
|147> H -7.76316844 1.37168729 -3.19612889
|148> H -6.37715729 3.42769327 -3.36551816
|149> H -4.32631281 3.65336097 -1.97953456
|150> H -3.68415155 1.83988615 -0.40769247
|151> H -8.02691289 -2.95655344 0.79798739
|152> H -10.43647751 -2.38072760 0.98102120
|153> H -11.13270183 -0.00576592 1.20590161
|154> H -9.41148608 1.78597482 1.27304429
|155> H -7.01373984 1.21571874 1.08882727
|156> H 10.65887302 -2.02398753 -0.15543171
|157> H -4.09728007 -4.50597049 2.74367625
|158> *
|159>
|160>                          ****END OF INPUT****
 Total Charge           Charge          ....    0
 Multiplicity           Mult            ....    1
 Number of Electrons    NEL             ....  320
Dispersion correction           -0.031322620
FINAL SINGLE POINT ENERGY     -2884.969239551532

CARTESIAN COORDINATES (ANGSTROEM)
---------------------------------
  C      7.320056    3.820371   -0.429729
  C      6.911154    2.490434   -0.376126
  C      7.885228    1.473686   -0.371542
  C      9.256951    1.851047   -0.411747
  C      9.671558    3.190283   -0.472847
  C      8.681155    4.169092   -0.482279
  C      7.857139    0.020966   -0.298107
  C      9.221006   -0.397834   -0.279058
  N     10.040911    0.711517   -0.365291
  C      9.610224   -1.740450   -0.164593
  C      8.599159   -2.692265   -0.049505
  C      7.251337   -2.313131   -0.062928
  C      6.843196   -0.972361   -0.203540
  H      6.489877   -3.086041    0.013176
  H     11.053317    0.693039   -0.359756
  H      8.855481   -3.743235    0.048597
  H      5.853287    2.247106   -0.342439
  H     10.725909    3.451451   -0.506447
  H      8.963620    5.217525   -0.528848
  H      6.572052    4.608418   -0.434809
  S      0.919402   -2.229039    0.954987
  C     -0.694426   -1.548791    0.632496
  N     -0.653254   -0.418168   -0.068971
  N      0.607412   -0.021416   -0.392877
  C      1.556429   -0.835741    0.052223
  C      2.973794   -0.635466   -0.157139
  N      3.495338    0.384086   -0.826888
  N      4.859907    0.351598   -0.885374
  C      5.407959   -0.680285   -0.262700
  S      4.190984   -1.759179    0.471694
  C     -7.760561    0.426843    1.045949
  C     -9.111833    0.747546    1.157714
  C    -10.078933   -0.259419    1.124527
  C     -9.687138   -1.593221    0.997076
  C     -8.335880   -1.918794    0.893933
  C     -7.355850   -0.912147    0.899224
  C     -5.915355   -1.285568    0.812099
  C     -4.951625   -0.480870    0.052957
  N     -3.639893   -0.701998    0.134345
  C     -3.236631   -1.769806    0.895405
  C     -4.193791   -2.645960    1.527230
  N     -5.544489   -2.365504    1.495393
  C     -1.902500   -2.175577    1.098122
  S     -1.871454   -3.641989    2.052893
  C     -3.600273   -3.717461    2.192967
  C     -5.377981    0.596452   -0.881642
  C     -4.583200    1.748737   -1.011418
  C     -4.944798    2.763414   -1.895072
  C     -6.095705    2.636618   -2.675231
  C     -6.877207    1.483476   -2.576331
  C     -6.523657    0.469740   -1.688283
  H     -7.126894   -0.433143   -1.635241
  H     -7.763168    1.371687   -3.196129
  H     -6.377157    3.427693   -3.365518
  H     -4.326313    3.653361   -1.979535
  H     -3.684152    1.839886   -0.407692
  H     -8.026913   -2.956553    0.797987
  H    -10.436478   -2.380728    0.981021
  H    -11.132702   -0.005766    1.205902
  H     -9.411486    1.785975    1.273044
  H     -7.013740    1.215719    1.088827
  H     10.658873   -2.023988   -0.155432
  H     -4.097280   -4.505970    2.743676

 Multiplicity           Mult            ....    1
 Number of Electrons    NEL             ....  320
 Basis Dimension        Dim             .... 1496

ORBITAL ENERGIES
----------------

  NO   OCC          E(Eh)            E(eV)
   0   2.0000     -89.017728     -2422.2955
   1   2.0000     -89.009936     -2422.0835
   2   2.0000     -89.008506     -2422.0446
   3   2.0000     -14.470846      -393.7717
   4   2.0000     -14.469218      -393.7275
   5   2.0000     -14.468264      -393.7015
   6   2.0000     -14.464213      -393.5912
   7   2.0000     -14.462828      -393.5535
   8   2.0000     -14.452692      -393.2778
   9   2.0000     -14.446748      -393.1160
  10   2.0000     -10.381619      -282.4982
  11   2.0000     -10.378152      -282.4039
  12   2.0000     -10.377672      -282.3908
  13   2.0000     -10.375755      -282.3386
  14   2.0000     -10.357025      -281.8290
  15   2.0000     -10.356385      -281.8116
  16   2.0000     -10.347544      -281.5710
  17   2.0000     -10.343623      -281.4643
  18   2.0000     -10.340256      -281.3727
  19   2.0000     -10.339176      -281.3433
  20   2.0000     -10.335156      -281.2339
  21   2.0000     -10.325672      -280.9758
  22   2.0000     -10.321566      -280.8641
  23   2.0000     -10.305576      -280.4290
  24   2.0000     -10.305554      -280.4284
  25   2.0000     -10.301393      -280.3151
  26   2.0000     -10.299964      -280.2763
  27   2.0000     -10.296865      -280.1920
  28   2.0000     -10.295838      -280.1640
  29   2.0000     -10.294371      -280.1241
  30   2.0000     -10.292813      -280.0817
  31   2.0000     -10.292724      -280.0793
  32   2.0000     -10.291138      -280.0361
  33   2.0000     -10.290836      -280.0279
  34   2.0000     -10.290730      -280.0250
  35   2.0000     -10.288584      -279.9666
  36   2.0000     -10.288529      -279.9651
  37   2.0000     -10.286674      -279.9146
  38   2.0000     -10.286596      -279.9125
  39   2.0000     -10.284908      -279.8666
  40   2.0000     -10.283762      -279.8354
  41   2.0000     -10.282760      -279.8081
  42   2.0000     -10.276500      -279.6378
  43   2.0000     -10.269756      -279.4543
  44   2.0000      -8.113143      -220.7698
  45   2.0000      -8.106747      -220.5958
  46   2.0000      -8.105263      -220.5554
  47   2.0000      -6.066132      -165.0678
  48   2.0000      -6.062034      -164.9563
  49   2.0000      -6.060980      -164.9277
  50   2.0000      -6.059704      -164.8929
  51   2.0000      -6.058200      -164.8520
  52   2.0000      -6.056097      -164.7948
  53   2.0000      -6.054496      -164.7512
  54   2.0000      -6.053750      -164.7309
  55   2.0000      -6.052396      -164.6941
  56   2.0000      -1.154817       -31.4242
  57   2.0000      -1.146062       -31.1859
  58   2.0000      -1.107981       -30.1497
  59   2.0000      -1.107850       -30.1461
  60   2.0000      -1.038368       -28.2554
  61   2.0000      -1.019755       -27.7490
  62   2.0000      -0.993147       -27.0249
  63   2.0000      -0.986598       -26.8467
  64   2.0000      -0.978588       -26.6287
  65   2.0000      -0.975916       -26.5560
  66   2.0000      -0.963129       -26.2081
  67   2.0000      -0.946556       -25.7571
  68   2.0000      -0.939736       -25.5715
  69   2.0000      -0.916063       -24.9273
  70   2.0000      -0.911576       -24.8053
  71   2.0000      -0.901842       -24.5404
  72   2.0000      -0.884548       -24.0698
  73   2.0000      -0.875344       -23.8193
  74   2.0000      -0.872201       -23.7338
  75   2.0000      -0.866157       -23.5693
  76   2.0000      -0.855162       -23.2701
  77   2.0000      -0.852591       -23.2002
  78   2.0000      -0.846054       -23.0223
  79   2.0000      -0.841061       -22.8864
  80   2.0000      -0.790465       -21.5097
  81   2.0000      -0.785716       -21.3804
  82   2.0000      -0.768465       -20.9110
  83   2.0000      -0.766177       -20.8487
  84   2.0000      -0.740861       -20.1599
  85   2.0000      -0.729723       -19.8568
  86   2.0000      -0.727014       -19.7831
  87   2.0000      -0.722944       -19.6723
  88   2.0000      -0.718100       -19.5405
  89   2.0000      -0.713006       -19.4019
  90   2.0000      -0.705541       -19.1987
  91   2.0000      -0.700194       -19.0532
  92   2.0000      -0.686931       -18.6923
  93   2.0000      -0.678621       -18.4662
  94   2.0000      -0.659467       -17.9450
  95   2.0000      -0.652261       -17.7489
  96   2.0000      -0.639748       -17.4084
  97   2.0000      -0.636890       -17.3306
  98   2.0000      -0.626070       -17.0362
  99   2.0000      -0.616779       -16.7834
 100   2.0000      -0.614230       -16.7140
 101   2.0000      -0.598930       -16.2977
 102   2.0000      -0.590156       -16.0590
 103   2.0000      -0.577918       -15.7259
 104   2.0000      -0.574753       -15.6398
 105   2.0000      -0.571459       -15.5502
 106   2.0000      -0.567394       -15.4396
 107   2.0000      -0.563408       -15.3311
 108   2.0000      -0.561301       -15.2738
 109   2.0000      -0.554775       -15.0962
 110   2.0000      -0.554124       -15.0785
 111   2.0000      -0.552076       -15.0228
 112   2.0000      -0.547661       -14.9026
 113   2.0000      -0.546210       -14.8631
 114   2.0000      -0.538393       -14.6504
 115   2.0000      -0.535950       -14.5839
 116   2.0000      -0.533618       -14.5205
 117   2.0000      -0.530357       -14.4317
 118   2.0000      -0.527585       -14.3563
 119   2.0000      -0.527100       -14.3431
 120   2.0000      -0.523560       -14.2468
 121   2.0000      -0.522806       -14.2263
 122   2.0000      -0.521186       -14.1822
 123   2.0000      -0.516450       -14.0533
 124   2.0000      -0.509012       -13.8509
 125   2.0000      -0.492925       -13.4132
 126   2.0000      -0.489034       -13.3073
 127   2.0000      -0.478192       -13.0123
 128   2.0000      -0.472996       -12.8709
 129   2.0000      -0.470099       -12.7920
 130   2.0000      -0.468475       -12.7479
 131   2.0000      -0.467632       -12.7249
 132   2.0000      -0.454535       -12.3685
 133   2.0000      -0.450441       -12.2571
 134   2.0000      -0.446832       -12.1589
 135   2.0000      -0.445597       -12.1253
 136   2.0000      -0.445053       -12.1105
 137   2.0000      -0.442289       -12.0353
 138   2.0000      -0.438732       -11.9385
 139   2.0000      -0.434711       -11.8291
 140   2.0000      -0.423192       -11.5156
 141   2.0000      -0.419768       -11.4225
 142   2.0000      -0.408929       -11.1275
 143   2.0000      -0.404912       -11.0182
 144   2.0000      -0.401718       -10.9313
 145   2.0000      -0.395199       -10.7539
 146   2.0000      -0.383731       -10.4419
 147   2.0000      -0.376724       -10.2512
 148   2.0000      -0.373430       -10.1616
 149   2.0000      -0.368237       -10.0202
 150   2.0000      -0.364222        -9.9110
 151   2.0000      -0.357189        -9.7196
 152   2.0000      -0.349556        -9.5119
 153   2.0000      -0.345368        -9.3979
 154   2.0000      -0.339464        -9.2373
 155   2.0000      -0.336513        -9.1570
 156   2.0000      -0.314132        -8.5480
 157   2.0000      -0.303475        -8.2580
 158   2.0000      -0.296690        -8.0734
 159   2.0000      -0.287793        -7.8313
 160   0.0000      -0.054811        -1.4915
 161   0.0000      -0.022885        -0.6227
 162   0.0000       0.008817         0.2399
 163   0.0000       0.019582         0.5329
 164   0.0000       0.025684         0.6989

MULLIKEN ATOMIC CHARGES
-----------------------
   0 C :   -0.173812
   1 C :   -0.133958
   2 C :   -0.029143
   3 C :    0.166653
   4 C :   -0.236183
   5 C :   -0.079387
   6 C :   -0.022897
   7 C :    0.186609
   8 N :   -0.304134
   9 C :   -0.227282
  10 C :   -0.101668
  11 C :   -0.266966
  12 C :    0.127067
  13 H :    0.125941
  14 H :    0.236687
  15 H :    0.127001
  16 H :    0.162022
  17 H :    0.113086
  18 H :    0.121960
  19 H :    0.121931
  20 S :   -0.012581
  21 C :    0.196003
  22 N :   -0.084289
  23 N :   -0.138957
  24 C :    0.099985
  25 C :    0.100775
  26 N :   -0.131021
  27 N :   -0.174344
  28 C :    0.170835
  29 S :   -0.004456
  30 C :   -0.203278
  31 C :   -0.141057
  32 C :   -0.104450
  33 C :   -0.132648
  34 C :   -0.205339
  35 C :    0.041039
  36 C :    0.259476
  37 C :    0.240026
  38 N :   -0.244299
  39 C :    0.109094
  40 C :    0.073492
  41 N :   -0.274493
  42 C :   -0.152256
  43 S :    0.102036
  44 C :   -0.217145
  45 C :    0.022020
  46 C :   -0.191216
  47 C :   -0.134973
  48 C :   -0.102271
  49 C :   -0.144117
  50 C :   -0.206286
  51 H :    0.159016
  52 H :    0.123650
  53 H :    0.126691
  54 H :    0.129997
  55 H :    0.154751
  56 H :    0.134211
  57 H :    0.125271
  58 H :    0.127677
  59 H :    0.127034
  60 H :    0.161444
  61 H :    0.121136
  62 H :    0.180291
Sum of atomic charges:   -0.0000000

LOEWDIN ATOMIC CHARGES
----------------------
   0 C :   -0.156366
   1 C :   -0.090266
   2 C :   -0.078086
   3 C :   -0.144492
   4 C :   -0.136648
   5 C :   -0.138377
   6 C :   -0.027562
   7 C :   -0.143080
   8 N :    0.201609
   9 C :   -0.117888
  10 C :   -0.142348
  11 C :   -0.124757
  12 C :   -0.116531
  13 H :    0.144219
  14 H :    0.193529
  15 H :    0.147628
  16 H :    0.155041
  17 H :    0.142464
  18 H :    0.144611
  19 H :    0.144812
  20 S :    0.677956
  21 C :   -0.436482
  22 N :    0.062009
  23 N :    0.077543
  24 C :   -0.456028
  25 C :   -0.458892
  26 N :    0.070924
  27 N :    0.054985
  28 C :   -0.373003
  29 S :    0.697174
  30 C :   -0.089381
  31 C :   -0.137385
  32 C :   -0.133825
  33 C :   -0.139128
  34 C :   -0.093123
  35 C :   -0.118271
  36 C :   -0.117811
  37 C :   -0.112606
  38 N :    0.220511
  39 C :   -0.187711
  40 C :   -0.241211
  41 N :    0.200196
  42 C :   -0.344081
  43 S :    0.761831
  44 C :   -0.331368
  45 C :   -0.118204
  46 C :   -0.082260
  47 C :   -0.135489
  48 C :   -0.132424
  49 C :   -0.140280
  50 C :   -0.091366
  51 H :    0.157382
  52 H :    0.146312
  53 H :    0.145315
  54 H :    0.147592
  55 H :    0.159251
  56 H :    0.153333
  57 H :    0.146101
  58 H :    0.145450
  59 H :    0.147179
  60 H :    0.158467
  61 H :    0.145786
  62 H :    0.137524

  Mayer bond orders larger than 0.1
B(  0-C ,  1-C ) :   1.5405 B(  0-C ,  5-C ) :   1.3529 B(  0-C , 19-H ) :   0.9839
B(  1-C ,  2-C ) :   1.2712 B(  1-C , 16-H ) :   0.9317 B(  2-C ,  3-C ) :   1.3598
B(  2-C ,  6-C ) :   1.0927 B(  3-C ,  4-C ) :   1.3054 B(  3-C ,  8-N ) :   1.1123
B(  4-C ,  5-C ) :   1.4834 B(  4-C , 17-H ) :   0.9760 B(  5-C , 18-H ) :   0.9814
B(  6-C ,  7-C ) :   1.3236 B(  6-C , 12-C ) :   1.2423 B(  7-C ,  8-N ) :   1.1550
B(  7-C ,  9-C ) :   1.2842 B(  8-N , 14-H ) :   0.9128 B(  9-C , 10-C ) :   1.4672
B(  9-C , 61-H ) :   0.9754 B( 10-C , 11-C ) :   1.4216 B( 10-C , 15-H ) :   0.9818
B( 11-C , 12-C ) :   1.3950 B( 11-C , 13-H ) :   0.9605 B( 12-C , 28-C ) :   0.9506
B( 20-S , 21-C ) :   1.2593 B( 20-S , 24-C ) :   1.2572 B( 21-C , 22-N ) :   1.6900
B( 21-C , 42-C ) :   0.9994 B( 22-N , 23-N ) :   1.1008 B( 23-N , 24-C ) :   1.7142
B( 24-C , 25-C ) :   1.0048 B( 25-C , 26-N ) :   1.7087 B( 25-C , 29-S ) :   1.2733
B( 26-N , 27-N ) :   1.0930 B( 27-N , 28-C ) :   1.6490 B( 28-C , 29-S ) :   1.2674
B( 30-C , 31-C ) :   1.4573 B( 30-C , 35-C ) :   1.3356 B( 30-C , 60-H ) :   0.9688
B( 31-C , 32-C ) :   1.3823 B( 31-C , 59-H ) :   0.9836 B( 32-C , 33-C ) :   1.3888
B( 32-C , 58-H ) :   0.9806 B( 33-C , 34-C ) :   1.4351 B( 33-C , 57-H ) :   0.9870
B( 34-C , 35-C ) :   1.4078 B( 34-C , 56-H ) :   0.9720 B( 35-C , 36-C ) :   0.9071
B( 36-C , 37-C ) :   1.0699 B( 36-C , 41-N ) :   1.6291 B( 37-C , 38-N ) :   1.6755
B( 37-C , 45-C ) :   0.9021 B( 38-N , 39-C ) :   1.2821 B( 39-C , 40-C ) :   1.2055
B( 39-C , 42-C ) :   1.3370 B( 40-C , 41-N ) :   1.2664 B( 40-C , 44-C ) :   1.5528
B( 42-C , 43-S ) :   1.3241 B( 43-S , 44-C ) :   1.3369 B( 44-C , 62-H ) :   0.9178
B( 45-C , 46-C ) :   1.4013 B( 45-C , 50-C ) :   1.3228 B( 46-C , 47-C ) :   1.4388
B( 46-C , 55-H ) :   0.9676 B( 47-C , 48-C ) :   1.3847 B( 47-C , 54-H ) :   0.9841
B( 48-C , 49-C ) :   1.3799 B( 48-C , 53-H ) :   0.9816 B( 49-C , 50-C ) :   1.4606
B( 49-C , 52-H ) :   0.9867 B( 50-C , 51-H ) :   0.9686

Dispersion correction           -0.031322620
FINAL SINGLE POINT ENERGY     -2884.969239358615

DIPOLE MOMENT
-------------
                                X             Y             Z
Electronic contribution:     15.59566     -19.02539       7.70386
Nuclear contribution   :    -15.23122      17.70034      -6.78942
                        -----------------------------------------
Total Dipole Moment    :      0.36444      -1.32505       0.91444
                        -----------------------------------------
Magnitude (a.u.)       :      1.65069
Magnitude (Debye)      :      4.19571

                             ****ORCA TERMINATED NORMALLY****
TOTAL RUN TIME: 0 days 0 hours 21 minutes 44 seconds 948 msec
