                         Program Version 4.0.0 -  RELEASE  -
|  1> #
|  2> !wB97X-D3 def2-TZVP def2/J RIJCOSX Grid5 FinalGrid6 TightSCF
|  3> %pal
|  4>  nprocs 24
|  5> end
|  6> %tddft
|  7>   Mode sTDDFT
|  8>   nroots 2
|  9>   Ethresh 10.0
| 10>   maxcore 5000
| 11>   triplets true
| 12> end
| 13> * xyz 0 1
| 14> C 5.05595372 1.40896929 -2.60991973
| 15> C 4.51681616 0.77237678 -1.49497023
| 16> C 5.38042680 0.12246789 -0.59274121
| 17> C 6.77914084 0.15231381 -0.85422455
| 18> C 7.32443777 0.78703020 -1.98073067
| 19> C 6.44045112 1.41409890 -2.85508519
| 20> C 5.20774616 -0.60354102 0.65610278
| 21> C 6.52019704 -0.95658237 1.09000581
| 22> N 7.44345470 -0.50996469 0.16323064
| 23> C 6.77507496 -1.63174709 2.29269874
| 24> C 5.67959779 -1.94855989 3.09321293
| 25> C 4.37915513 -1.61377856 2.69605852
| 26> C 4.10408269 -0.95945193 1.47970605
| 27> H 3.54784645 -1.89151398 3.34007605
| 28> H 8.44735905 -0.61955049 0.23742793
| 29> H 5.83157276 -2.46477663 4.03673666
| 30> H 3.44323794 0.77745957 -1.33095072
| 31> H 8.39638008 0.79228576 -2.15934576
| 32> H 6.82564743 1.91657310 -3.73844444
| 33> H 4.39351583 1.91107810 -3.30974117
| 34> S -2.23844409 0.08947929 -0.14349910
| 35> C -3.51718120 0.24848676 1.08305002
| 36> N -3.04773220 0.15971016 2.32159545
| 37> N -1.69989950 -0.05506462 2.39452320
| 38> C -1.11296182 -0.11313158 1.20719438
| 39> C 0.30314845 -0.33061463 1.01505813
| 40> N 0.88289763 -0.39848265 -0.17592598
| 41> N 2.23290134 -0.60985080 -0.10898481
| 42> C 2.70484543 -0.69990494 1.12498361
| 43> S 1.43192748 -0.53547959 2.36096984
| 44> C -7.59206532 1.47402636 0.46932508
| 45> C -6.99685252 0.64754839 -0.51847466
| 46> C -5.65530389 0.17281802 -0.35340122
| 47> C -4.92580963 0.58480833 0.81784987
| 48> C -5.56421931 1.37450252 1.77397455
| 49> C -6.88994490 1.81492616 1.60715553
| 50> C -5.12975301 -0.71463892 -1.33661184
| 51> C -5.87055608 -1.07459876 -2.44484358
| 52> C -7.17725222 -0.57805554 -2.64233697
| 53> C -7.72956291 0.26218387 -1.68536757
| 54> O -8.99490934 0.73800934 -1.82924370
| 55> H -7.74966927 -0.86505973 -3.52051546
| 56> H -5.00959613 1.67114127 2.66042621
| 57> H -7.34794812 2.43801029 2.37044658
| 58> H -5.44731770 -1.75549002 -3.17778880
| 59> H -4.14065656 -1.14243528 -1.21072695
| 60> H -9.38867821 0.40674614 -2.64738595
| 61> H 7.78783946 -1.88693417 2.59158797
| 62> H -8.60944026 1.82255757 0.31726379
| 63> *
| 64> $new_job
| 65> #
| 66> !wB97X-D3 def2-TZVP def2/J RIJCOSX Grid5 FinalGrid6 TightSCF
| 67> %pal
| 68>  nprocs 24
| 69> end
| 70> %elprop
| 71>    dipole     true
| 72>    quadrupole true
| 73> end
| 74> %tddft
| 75>   Mode sTDDFT
| 76>   nroots 2
| 77>   Ethresh 10.0
| 78>   maxcore 5000
| 79> end
| 80> * xyz 0 1
| 81> C 5.05595372 1.40896929 -2.60991973
| 82> C 4.51681616 0.77237678 -1.49497023
| 83> C 5.38042680 0.12246789 -0.59274121
| 84> C 6.77914084 0.15231381 -0.85422455
| 85> C 7.32443777 0.78703020 -1.98073067
| 86> C 6.44045112 1.41409890 -2.85508519
| 87> C 5.20774616 -0.60354102 0.65610278
| 88> C 6.52019704 -0.95658237 1.09000581
| 89> N 7.44345470 -0.50996469 0.16323064
| 90> C 6.77507496 -1.63174709 2.29269874
| 91> C 5.67959779 -1.94855989 3.09321293
| 92> C 4.37915513 -1.61377856 2.69605852
| 93> C 4.10408269 -0.95945193 1.47970605
| 94> H 3.54784645 -1.89151398 3.34007605
| 95> H 8.44735905 -0.61955049 0.23742793
| 96> H 5.83157276 -2.46477663 4.03673666
| 97> H 3.44323794 0.77745957 -1.33095072
| 98> H 8.39638008 0.79228576 -2.15934576
| 99> H 6.82564743 1.91657310 -3.73844444
|100> H 4.39351583 1.91107810 -3.30974117
|101> S -2.23844409 0.08947929 -0.14349910
|102> C -3.51718120 0.24848676 1.08305002
|103> N -3.04773220 0.15971016 2.32159545
|104> N -1.69989950 -0.05506462 2.39452320
|105> C -1.11296182 -0.11313158 1.20719438
|106> C 0.30314845 -0.33061463 1.01505813
|107> N 0.88289763 -0.39848265 -0.17592598
|108> N 2.23290134 -0.60985080 -0.10898481
|109> C 2.70484543 -0.69990494 1.12498361
|110> S 1.43192748 -0.53547959 2.36096984
|111> C -7.59206532 1.47402636 0.46932508
|112> C -6.99685252 0.64754839 -0.51847466
|113> C -5.65530389 0.17281802 -0.35340122
|114> C -4.92580963 0.58480833 0.81784987
|115> C -5.56421931 1.37450252 1.77397455
|116> C -6.88994490 1.81492616 1.60715553
|117> C -5.12975301 -0.71463892 -1.33661184
|118> C -5.87055608 -1.07459876 -2.44484358
|119> C -7.17725222 -0.57805554 -2.64233697
|120> C -7.72956291 0.26218387 -1.68536757
|121> O -8.99490934 0.73800934 -1.82924370
|122> H -7.74966927 -0.86505973 -3.52051546
|123> H -5.00959613 1.67114127 2.66042621
|124> H -7.34794812 2.43801029 2.37044658
|125> H -5.44731770 -1.75549002 -3.17778880
|126> H -4.14065656 -1.14243528 -1.21072695
|127> H -9.38867821 0.40674614 -2.64738595
|128> H 7.78783946 -1.88693417 2.59158797
|129> H -8.60944026 1.82255757 0.31726379
|130> *
|131>
|132>                          ****END OF INPUT****
 Total Charge           Charge          ....    0
 Multiplicity           Mult            ....    1
 Number of Electrons    NEL             ....  246
Dispersion correction           -0.022373944
FINAL SINGLE POINT ENERGY     -2145.253102611623

CARTESIAN COORDINATES (ANGSTROEM)
---------------------------------
  C      5.055954    1.408969   -2.609920
  C      4.516816    0.772377   -1.494970
  C      5.380427    0.122468   -0.592741
  C      6.779141    0.152314   -0.854225
  C      7.324438    0.787030   -1.980731
  C      6.440451    1.414099   -2.855085
  C      5.207746   -0.603541    0.656103
  C      6.520197   -0.956582    1.090006
  N      7.443455   -0.509965    0.163231
  C      6.775075   -1.631747    2.292699
  C      5.679598   -1.948560    3.093213
  C      4.379155   -1.613779    2.696059
  C      4.104083   -0.959452    1.479706
  H      3.547846   -1.891514    3.340076
  H      8.447359   -0.619550    0.237428
  H      5.831573   -2.464777    4.036737
  H      3.443238    0.777460   -1.330951
  H      8.396380    0.792286   -2.159346
  H      6.825647    1.916573   -3.738444
  H      4.393516    1.911078   -3.309741
  S     -2.238444    0.089479   -0.143499
  C     -3.517181    0.248487    1.083050
  N     -3.047732    0.159710    2.321595
  N     -1.699899   -0.055065    2.394523
  C     -1.112962   -0.113132    1.207194
  C      0.303148   -0.330615    1.015058
  N      0.882898   -0.398483   -0.175926
  N      2.232901   -0.609851   -0.108985
  C      2.704845   -0.699905    1.124984
  S      1.431927   -0.535480    2.360970
  C     -7.592065    1.474026    0.469325
  C     -6.996853    0.647548   -0.518475
  C     -5.655304    0.172818   -0.353401
  C     -4.925810    0.584808    0.817850
  C     -5.564219    1.374503    1.773975
  C     -6.889945    1.814926    1.607156
  C     -5.129753   -0.714639   -1.336612
  C     -5.870556   -1.074599   -2.444844
  C     -7.177252   -0.578056   -2.642337
  C     -7.729563    0.262184   -1.685368
  O     -8.994909    0.738009   -1.829244
  H     -7.749669   -0.865060   -3.520515
  H     -5.009596    1.671141    2.660426
  H     -7.347948    2.438010    2.370447
  H     -5.447318   -1.755490   -3.177789
  H     -4.140657   -1.142435   -1.210727
  H     -9.388678    0.406746   -2.647386
  H      7.787839   -1.886934    2.591588
  H     -8.609440    1.822558    0.317264

 Multiplicity           Mult            ....    1
 Number of Electrons    NEL             ....  246
 Basis Dimension        Dim             .... 1156

ORBITAL ENERGIES
----------------

  NO   OCC          E(Eh)            E(eV)
   0   2.0000     -89.007620     -2422.0205
   1   2.0000     -89.006445     -2421.9885
   2   2.0000     -19.279481      -524.6214
   3   2.0000     -14.471728      -393.7957
   4   2.0000     -14.471372      -393.7860
   5   2.0000     -14.470730      -393.7686
   6   2.0000     -14.463268      -393.5655
   7   2.0000     -14.462725      -393.5508
   8   2.0000     -10.378020      -282.4003
   9   2.0000     -10.376597      -282.3616
  10   2.0000     -10.373874      -282.2875
  11   2.0000     -10.373750      -282.2841
  12   2.0000     -10.363572      -282.0071
  13   2.0000     -10.334765      -281.2233
  14   2.0000     -10.326066      -280.9865
  15   2.0000     -10.320630      -280.8386
  16   2.0000     -10.318250      -280.7739
  17   2.0000     -10.316866      -280.7362
  18   2.0000     -10.307152      -280.4719
  19   2.0000     -10.305031      -280.4141
  20   2.0000     -10.299886      -280.2742
  21   2.0000     -10.299369      -280.2601
  22   2.0000     -10.298753      -280.2433
  23   2.0000     -10.298652      -280.2406
  24   2.0000     -10.296004      -280.1685
  25   2.0000     -10.294772      -280.1350
  26   2.0000     -10.292793      -280.0811
  27   2.0000     -10.292094      -280.0621
  28   2.0000     -10.288954      -279.9767
  29   2.0000     -10.287197      -279.9289
  30   2.0000     -10.284453      -279.8542
  31   2.0000     -10.283497      -279.8282
  32   2.0000     -10.277416      -279.6627
  33   2.0000     -10.270828      -279.4834
  34   2.0000      -8.103799      -220.5156
  35   2.0000      -8.102695      -220.4855
  36   2.0000      -6.056903      -164.8167
  37   2.0000      -6.055787      -164.7863
  38   2.0000      -6.052942      -164.7089
  39   2.0000      -6.051872      -164.6798
  40   2.0000      -6.050896      -164.6533
  41   2.0000      -6.049784      -164.6230
  42   2.0000      -1.197361       -32.5818
  43   2.0000      -1.155053       -31.4306
  44   2.0000      -1.146977       -31.2108
  45   2.0000      -1.107952       -30.1489
  46   2.0000      -1.010594       -27.4996
  47   2.0000      -0.993248       -27.0276
  48   2.0000      -0.978480       -26.6258
  49   2.0000      -0.964410       -26.2429
  50   2.0000      -0.957092       -26.0438
  51   2.0000      -0.943725       -25.6801
  52   2.0000      -0.934159       -25.4198
  53   2.0000      -0.914245       -24.8779
  54   2.0000      -0.901645       -24.5350
  55   2.0000      -0.891758       -24.2660
  56   2.0000      -0.874916       -23.8077
  57   2.0000      -0.873719       -23.7751
  58   2.0000      -0.846888       -23.0450
  59   2.0000      -0.845903       -23.0182
  60   2.0000      -0.841212       -22.8906
  61   2.0000      -0.784956       -21.3597
  62   2.0000      -0.771471       -20.9928
  63   2.0000      -0.760730       -20.7005
  64   2.0000      -0.751620       -20.4526
  65   2.0000      -0.735289       -20.0082
  66   2.0000      -0.727429       -19.7943
  67   2.0000      -0.723623       -19.6908
  68   2.0000      -0.713702       -19.4208
  69   2.0000      -0.698815       -19.0157
  70   2.0000      -0.673385       -18.3238
  71   2.0000      -0.661102       -17.9895
  72   2.0000      -0.658870       -17.9288
  73   2.0000      -0.643149       -17.5010
  74   2.0000      -0.629795       -17.1376
  75   2.0000      -0.624185       -16.9849
  76   2.0000      -0.619012       -16.8442
  77   2.0000      -0.616239       -16.7687
  78   2.0000      -0.601107       -16.3570
  79   2.0000      -0.580357       -15.7923
  80   2.0000      -0.574226       -15.6255
  81   2.0000      -0.572399       -15.5758
  82   2.0000      -0.564413       -15.3585
  83   2.0000      -0.562651       -15.3105
  84   2.0000      -0.553738       -15.0680
  85   2.0000      -0.549364       -14.9490
  86   2.0000      -0.545921       -14.8553
  87   2.0000      -0.542444       -14.7607
  88   2.0000      -0.538026       -14.6404
  89   2.0000      -0.537485       -14.6257
  90   2.0000      -0.530790       -14.4435
  91   2.0000      -0.525808       -14.3080
  92   2.0000      -0.525019       -14.2865
  93   2.0000      -0.519009       -14.1229
  94   2.0000      -0.516657       -14.0589
  95   2.0000      -0.514863       -14.0101
  96   2.0000      -0.495975       -13.4962
  97   2.0000      -0.487948       -13.2777
  98   2.0000      -0.483414       -13.1544
  99   2.0000      -0.477160       -12.9842
 100   2.0000      -0.471602       -12.8329
 101   2.0000      -0.468325       -12.7438
 102   2.0000      -0.449830       -12.2405
 103   2.0000      -0.446646       -12.1539
 104   2.0000      -0.445974       -12.1356
 105   2.0000      -0.439155       -11.9500
 106   2.0000      -0.435488       -11.8502
 107   2.0000      -0.433946       -11.8083
 108   2.0000      -0.421039       -11.4571
 109   2.0000      -0.418645       -11.3919
 110   2.0000      -0.400363       -10.8944
 111   2.0000      -0.398525       -10.8444
 112   2.0000      -0.391959       -10.6657
 113   2.0000      -0.385249       -10.4832
 114   2.0000      -0.375334       -10.2134
 115   2.0000      -0.372777       -10.1438
 116   2.0000      -0.366184        -9.9644
 117   2.0000      -0.350731        -9.5439
 118   2.0000      -0.343487        -9.3468
 119   2.0000      -0.330428        -8.9914
 120   2.0000      -0.301163        -8.1951
 121   2.0000      -0.293582        -7.9888
 122   2.0000      -0.288561        -7.8521
 123   0.0000      -0.032666        -0.8889
 124   0.0000      -0.001507        -0.0410
 125   0.0000       0.020139         0.5480
 126   0.0000       0.037337         1.0160
 127   0.0000       0.047277         1.2865

MULLIKEN ATOMIC CHARGES
-----------------------
   0 C :   -0.175264
   1 C :   -0.130197
   2 C :   -0.022974
   3 C :    0.178490
   4 C :   -0.241866
   5 C :   -0.076720
   6 C :   -0.029354
   7 C :    0.190764
   8 N :   -0.301066
   9 C :   -0.226039
  10 C :   -0.095979
  11 C :   -0.281781
  12 C :    0.128731
  13 H :    0.129483
  14 H :    0.236756
  15 H :    0.127257
  16 H :    0.157201
  17 H :    0.112902
  18 H :    0.122103
  19 H :    0.118629
  20 S :    0.058821
  21 C :    0.163646
  22 N :   -0.158050
  23 N :   -0.173667
  24 C :    0.093073
  25 C :    0.119221
  26 N :   -0.170306
  27 N :   -0.192937
  28 C :    0.146639
  29 S :    0.063171
  30 C :   -0.193467
  31 C :    0.062876
  32 C :    0.003202
  33 C :    0.130044
  34 C :   -0.234866
  35 C :   -0.089084
  36 C :   -0.287285
  37 C :   -0.125082
  38 C :   -0.236795
  39 C :    0.262286
  40 O :   -0.423224
  41 H :    0.109572
  42 H :    0.154787
  43 H :    0.128847
  44 H :    0.129389
  45 H :    0.133711
  46 H :    0.333408
  47 H :    0.121429
  48 H :    0.149562
Sum of atomic charges:   -0.0000000

LOEWDIN ATOMIC CHARGES
----------------------
   0 C :   -0.157905
   1 C :   -0.091561
   2 C :   -0.077924
   3 C :   -0.144455
   4 C :   -0.136483
   5 C :   -0.139151
   6 C :   -0.028243
   7 C :   -0.143151
   8 N :    0.201506
   9 C :   -0.117968
  10 C :   -0.141237
  11 C :   -0.122829
  12 C :   -0.116184
  13 H :    0.145485
  14 H :    0.193540
  15 H :    0.147974
  16 H :    0.154069
  17 H :    0.142499
  18 H :    0.144502
  19 H :    0.144020
  20 S :    0.740376
  21 C :   -0.379053
  22 N :    0.043858
  23 N :    0.046450
  24 C :   -0.462199
  25 C :   -0.460312
  26 N :    0.043230
  27 N :    0.047539
  28 C :   -0.374358
  29 S :    0.738482
  30 C :   -0.077077
  31 C :   -0.070498
  32 C :   -0.054861
  33 C :   -0.110564
  34 C :   -0.071484
  35 C :   -0.137847
  36 C :   -0.134517
  37 C :   -0.133650
  38 C :   -0.152547
  39 C :   -0.221653
  40 O :    0.087124
  41 H :    0.142345
  42 H :    0.159390
  43 H :    0.148688
  44 H :    0.148850
  45 H :    0.140940
  46 H :    0.194985
  47 H :    0.145810
  48 H :    0.156049

  Mayer bond orders larger than 0.1
B(  0-C ,  1-C ) :   1.5372 B(  0-C ,  5-C ) :   1.3526 B(  0-C , 19-H ) :   0.9871
B(  1-C ,  2-C ) :   1.2667 B(  1-C , 16-H ) :   0.9362 B(  2-C ,  3-C ) :   1.3515
B(  2-C ,  6-C ) :   1.0809 B(  3-C ,  4-C ) :   1.3025 B(  3-C ,  8-N ) :   1.1147
B(  4-C ,  5-C ) :   1.4823 B(  4-C , 17-H ) :   0.9774 B(  5-C , 18-H ) :   0.9812
B(  6-C ,  7-C ) :   1.3197 B(  6-C , 12-C ) :   1.2457 B(  7-C ,  8-N ) :   1.1554
B(  7-C ,  9-C ) :   1.2849 B(  8-N , 14-H ) :   0.9122 B(  9-C , 10-C ) :   1.4669
B(  9-C , 47-H ) :   0.9744 B( 10-C , 11-C ) :   1.4237 B( 10-C , 15-H ) :   0.9805
B( 11-C , 12-C ) :   1.4050 B( 11-C , 13-H ) :   0.9601 B( 12-C , 28-C ) :   0.9382
B( 20-S , 21-C ) :   1.2463 B( 20-S , 24-C ) :   1.3048 B( 21-C , 22-N ) :   1.6643
B( 21-C , 33-C ) :   0.8716 B( 22-N , 23-N ) :   1.1659 B( 23-N , 24-C ) :   1.7277
B( 24-C , 25-C ) :   0.9352 B( 25-C , 26-N ) :   1.7010 B( 25-C , 29-S ) :   1.2992
B( 26-N , 27-N ) :   1.1214 B( 27-N , 28-C ) :   1.6481 B( 28-C , 29-S ) :   1.2902
B( 30-C , 31-C ) :   1.2372 B( 30-C , 35-C ) :   1.5002 B( 30-C , 48-H ) :   0.9634
B( 31-C , 32-C ) :   1.3537 B( 31-C , 39-C ) :   1.2297 B( 32-C , 33-C ) :   1.1713
B( 32-C , 36-C ) :   1.2690 B( 33-C , 34-C ) :   1.5136 B( 34-C , 35-C ) :   1.2899
B( 34-C , 42-H ) :   0.9542 B( 35-C , 43-H ) :   0.9936 B( 36-C , 37-C ) :   1.6124
B( 36-C , 45-H ) :   0.9321 B( 37-C , 38-C ) :   1.2947 B( 37-C , 44-H ) :   0.9715
B( 38-C , 39-C ) :   1.4731 B( 38-C , 41-H ) :   0.9696 B( 39-C , 40-O ) :   1.1708
B( 40-O , 46-H ) :   0.8737

Dispersion correction           -0.022373944
FINAL SINGLE POINT ENERGY     -2145.253102575544

DIPOLE MOMENT
-------------
                                X             Y             Z
Electronic contribution:     -2.01310      -1.84585       7.97326
Nuclear contribution   :      2.34969       1.67652      -8.59222
                        -----------------------------------------
Total Dipole Moment    :      0.33659      -0.16933      -0.61896
                        -----------------------------------------
Magnitude (a.u.)       :      0.72462
Magnitude (Debye)      :      1.84184

                             ****ORCA TERMINATED NORMALLY****
TOTAL RUN TIME: 0 days 0 hours 12 minutes 15 seconds 337 msec
