                         Program Version 4.0.0 -  RELEASE  -
|  1> #
|  2> !wB97X-D3 def2-TZVP def2/J RIJCOSX Grid5 FinalGrid6 TightSCF
|  3> %pal
|  4>  nprocs 24
|  5> end
|  6> %tddft
|  7>   Mode sTDDFT
|  8>   nroots 2
|  9>   Ethresh 10.0
| 10>   maxcore 5000
| 11>   triplets true
| 12> end
| 13> * xyz 0 1
| 14> C 4.50184495 0.63781801 -3.25257247
| 15> C 4.02264055 0.54541303 -1.94850475
| 16> C 4.93168234 0.63112562 -0.87667676
| 17> C 6.31359970 0.79869214 -1.17348704
| 18> C 6.79827726 0.89921926 -2.48662038
| 19> C 5.87029086 0.81725221 -3.52151895
| 20> C 4.82544864 0.55409303 0.57206632
| 21> C 6.15830515 0.66049918 1.06991977
| 22> N 7.03030541 0.82390956 0.00995130
| 23> C 6.47686753 0.58029176 2.43343670
| 24> C 5.42675751 0.37033842 3.32487936
| 25> C 4.10802590 0.25967020 2.86755070
| 26> C 3.76801863 0.36457637 1.50464682
| 27> H 3.31289065 0.11234823 3.59488693
| 28> H 8.03618012 0.91095707 0.08753221
| 29> H 5.62900445 0.29439940 4.38933221
| 30> H 2.96017074 0.41243768 -1.76693223
| 31> H 7.85840402 1.03061275 -2.68613757
| 32> H 6.20802060 0.89043135 -4.55191650
| 33> H 3.80412925 0.57321869 -4.08306218
| 34> S -2.66113045 0.13925358 -0.13350084
| 35> C -1.45027059 -0.36831323 1.04776975
| 36> N -1.95449428 -1.09077734 2.04889349
| 37> N -3.29284333 -1.28398987 1.94974544
| 38> C -3.84687364 -0.71761779 0.87499026
| 39> C -0.05029815 -0.03574542 0.94137095
| 40> N 0.46530666 0.68755252 -0.04609671
| 41> N 1.81371088 0.87150253 0.06537767
| 42> C 2.35277866 0.29216792 1.12922933
| 43> S 1.15113515 -0.55703684 2.13095601
| 44> C -6.90849416 0.99156216 -2.78718891
| 45> N -7.75266787 0.34442663 -2.01149066
| 46> C -7.24035539 -0.26991322 -0.87446092
| 47> C -5.81923150 -0.18702988 -0.57349403
| 48> N -4.98122498 0.50669369 -1.42541956
| 49> C -5.50407636 1.07588112 -2.49347080
| 50> C -8.11088387 -0.96264085 -0.03399237
| 51> C -7.60418162 -1.59828191 1.13539495
| 52> C -6.16205424 -1.52267947 1.45446054
| 53> C -5.26363025 -0.79996561 0.57448024
| 54> N -5.75941959 -2.13747449 2.55873416
| 55> S -7.27513375 -2.90416271 3.32062698
| 56> N -8.38186783 -2.27608359 1.98038436
| 57> H -4.82975854 1.62388483 -3.16242783
| 58> H -7.30838145 1.47809948 -3.68577576
| 59> H 7.50342381 0.66765280 2.77793074
| 60> H -9.16984756 -1.01736903 -0.26959996
| 61> *
| 62> $new_job
| 63> #
| 64> !wB97X-D3 def2-TZVP def2/J RIJCOSX Grid5 FinalGrid6 TightSCF
| 65> %pal
| 66>  nprocs 24
| 67> end
| 68> %elprop
| 69>    dipole     true
| 70>    quadrupole true
| 71> end
| 72> %tddft
| 73>   Mode sTDDFT
| 74>   nroots 2
| 75>   Ethresh 10.0
| 76>   maxcore 5000
| 77> end
| 78> * xyz 0 1
| 79> C 4.50184495 0.63781801 -3.25257247
| 80> C 4.02264055 0.54541303 -1.94850475
| 81> C 4.93168234 0.63112562 -0.87667676
| 82> C 6.31359970 0.79869214 -1.17348704
| 83> C 6.79827726 0.89921926 -2.48662038
| 84> C 5.87029086 0.81725221 -3.52151895
| 85> C 4.82544864 0.55409303 0.57206632
| 86> C 6.15830515 0.66049918 1.06991977
| 87> N 7.03030541 0.82390956 0.00995130
| 88> C 6.47686753 0.58029176 2.43343670
| 89> C 5.42675751 0.37033842 3.32487936
| 90> C 4.10802590 0.25967020 2.86755070
| 91> C 3.76801863 0.36457637 1.50464682
| 92> H 3.31289065 0.11234823 3.59488693
| 93> H 8.03618012 0.91095707 0.08753221
| 94> H 5.62900445 0.29439940 4.38933221
| 95> H 2.96017074 0.41243768 -1.76693223
| 96> H 7.85840402 1.03061275 -2.68613757
| 97> H 6.20802060 0.89043135 -4.55191650
| 98> H 3.80412925 0.57321869 -4.08306218
| 99> S -2.66113045 0.13925358 -0.13350084
|100> C -1.45027059 -0.36831323 1.04776975
|101> N -1.95449428 -1.09077734 2.04889349
|102> N -3.29284333 -1.28398987 1.94974544
|103> C -3.84687364 -0.71761779 0.87499026
|104> C -0.05029815 -0.03574542 0.94137095
|105> N 0.46530666 0.68755252 -0.04609671
|106> N 1.81371088 0.87150253 0.06537767
|107> C 2.35277866 0.29216792 1.12922933
|108> S 1.15113515 -0.55703684 2.13095601
|109> C -6.90849416 0.99156216 -2.78718891
|110> N -7.75266787 0.34442663 -2.01149066
|111> C -7.24035539 -0.26991322 -0.87446092
|112> C -5.81923150 -0.18702988 -0.57349403
|113> N -4.98122498 0.50669369 -1.42541956
|114> C -5.50407636 1.07588112 -2.49347080
|115> C -8.11088387 -0.96264085 -0.03399237
|116> C -7.60418162 -1.59828191 1.13539495
|117> C -6.16205424 -1.52267947 1.45446054
|118> C -5.26363025 -0.79996561 0.57448024
|119> N -5.75941959 -2.13747449 2.55873416
|120> S -7.27513375 -2.90416271 3.32062698
|121> N -8.38186783 -2.27608359 1.98038436
|122> H -4.82975854 1.62388483 -3.16242783
|123> H -7.30838145 1.47809948 -3.68577576
|124> H 7.50342381 0.66765280 2.77793074
|125> H -9.16984756 -1.01736903 -0.26959996
|126> *
|127>
|128>                          ****END OF INPUT****
 Total Charge           Charge          ....    0
 Multiplicity           Mult            ....    1
 Number of Electrons    NEL             ....  266
Dispersion correction           -0.022520729
FINAL SINGLE POINT ENERGY     -2608.517768318863

CARTESIAN COORDINATES (ANGSTROEM)
---------------------------------
  C      4.501845    0.637818   -3.252572
  C      4.022641    0.545413   -1.948505
  C      4.931682    0.631126   -0.876677
  C      6.313600    0.798692   -1.173487
  C      6.798277    0.899219   -2.486620
  C      5.870291    0.817252   -3.521519
  C      4.825449    0.554093    0.572066
  C      6.158305    0.660499    1.069920
  N      7.030305    0.823910    0.009951
  C      6.476868    0.580292    2.433437
  C      5.426758    0.370338    3.324879
  C      4.108026    0.259670    2.867551
  C      3.768019    0.364576    1.504647
  H      3.312891    0.112348    3.594887
  H      8.036180    0.910957    0.087532
  H      5.629004    0.294399    4.389332
  H      2.960171    0.412438   -1.766932
  H      7.858404    1.030613   -2.686138
  H      6.208021    0.890431   -4.551916
  H      3.804129    0.573219   -4.083062
  S     -2.661130    0.139254   -0.133501
  C     -1.450271   -0.368313    1.047770
  N     -1.954494   -1.090777    2.048893
  N     -3.292843   -1.283990    1.949745
  C     -3.846874   -0.717618    0.874990
  C     -0.050298   -0.035745    0.941371
  N      0.465307    0.687553   -0.046097
  N      1.813711    0.871503    0.065378
  C      2.352779    0.292168    1.129229
  S      1.151135   -0.557037    2.130956
  C     -6.908494    0.991562   -2.787189
  N     -7.752668    0.344427   -2.011491
  C     -7.240355   -0.269913   -0.874461
  C     -5.819231   -0.187030   -0.573494
  N     -4.981225    0.506694   -1.425420
  C     -5.504076    1.075881   -2.493471
  C     -8.110884   -0.962641   -0.033992
  C     -7.604182   -1.598282    1.135395
  C     -6.162054   -1.522679    1.454461
  C     -5.263630   -0.799966    0.574480
  N     -5.759420   -2.137474    2.558734
  S     -7.275134   -2.904163    3.320627
  N     -8.381868   -2.276084    1.980384
  H     -4.829759    1.623885   -3.162428
  H     -7.308381    1.478099   -3.685776
  H      7.503424    0.667653    2.777931
  H     -9.169848   -1.017369   -0.269600

 Multiplicity           Mult            ....    1
 Number of Electrons    NEL             ....  266
 Basis Dimension        Dim             .... 1200

ORBITAL ENERGIES
----------------

  NO   OCC          E(Eh)            E(eV)
   0   2.0000     -89.046907     -2423.0895
   1   2.0000     -89.004478     -2421.9350
   2   2.0000     -89.003950     -2421.9206
   3   2.0000     -14.493026      -394.3753
   4   2.0000     -14.488678      -394.2570
   5   2.0000     -14.477518      -393.9533
   6   2.0000     -14.475841      -393.9077
   7   2.0000     -14.470433      -393.7605
   8   2.0000     -14.469829      -393.7441
   9   2.0000     -14.466646      -393.6575
  10   2.0000     -14.461977      -393.5304
  11   2.0000     -14.461760      -393.5245
  12   2.0000     -10.374991      -282.3179
  13   2.0000     -10.372889      -282.2607
  14   2.0000     -10.372106      -282.2393
  15   2.0000     -10.371945      -282.2350
  16   2.0000     -10.369594      -282.1710
  17   2.0000     -10.369191      -282.1600
  18   2.0000     -10.365783      -282.0673
  19   2.0000     -10.364232      -282.0251
  20   2.0000     -10.364018      -282.0193
  21   2.0000     -10.362776      -281.9855
  22   2.0000     -10.349577      -281.6263
  23   2.0000     -10.334185      -281.2075
  24   2.0000     -10.330362      -281.1034
  25   2.0000     -10.325833      -280.9802
  26   2.0000     -10.319746      -280.8146
  27   2.0000     -10.304387      -280.3966
  28   2.0000     -10.298699      -280.2419
  29   2.0000     -10.295364      -280.1511
  30   2.0000     -10.293942      -280.1124
  31   2.0000     -10.288652      -279.9685
  32   2.0000     -10.284335      -279.8510
  33   2.0000     -10.283423      -279.8262
  34   2.0000     -10.277221      -279.6574
  35   2.0000     -10.270810      -279.4829
  36   2.0000      -8.135216      -221.3705
  37   2.0000      -8.100715      -220.4316
  38   2.0000      -8.099055      -220.3865
  39   2.0000      -6.090803      -165.7392
  40   2.0000      -6.084312      -165.5626
  41   2.0000      -6.081204      -165.4780
  42   2.0000      -6.053772      -164.7315
  43   2.0000      -6.052335      -164.6924
  44   2.0000      -6.049859      -164.6250
  45   2.0000      -6.048094      -164.5770
  46   2.0000      -6.047849      -164.5703
  47   2.0000      -6.046133      -164.5237
  48   2.0000      -1.153653       -31.3925
  49   2.0000      -1.146035       -31.1852
  50   2.0000      -1.130132       -30.7525
  51   2.0000      -1.107611       -30.1396
  52   2.0000      -1.100436       -29.9444
  53   2.0000      -1.059789       -28.8383
  54   2.0000      -1.014017       -27.5928
  55   2.0000      -0.992532       -27.0082
  56   2.0000      -0.989292       -26.9200
  57   2.0000      -0.972345       -26.4589
  58   2.0000      -0.963253       -26.2115
  59   2.0000      -0.944565       -25.7029
  60   2.0000      -0.932805       -25.3829
  61   2.0000      -0.911254       -24.7965
  62   2.0000      -0.900977       -24.5168
  63   2.0000      -0.893212       -24.3055
  64   2.0000      -0.883951       -24.0535
  65   2.0000      -0.873767       -23.7764
  66   2.0000      -0.846446       -23.0330
  67   2.0000      -0.840839       -22.8804
  68   2.0000      -0.826453       -22.4889
  69   2.0000      -0.791084       -21.5265
  70   2.0000      -0.777873       -21.1670
  71   2.0000      -0.769372       -20.9357
  72   2.0000      -0.760123       -20.6840
  73   2.0000      -0.750335       -20.4177
  74   2.0000      -0.727782       -19.8040
  75   2.0000      -0.723192       -19.6791
  76   2.0000      -0.713465       -19.4144
  77   2.0000      -0.697453       -18.9787
  78   2.0000      -0.676723       -18.4146
  79   2.0000      -0.666538       -18.1374
  80   2.0000      -0.659177       -17.9371
  81   2.0000      -0.652507       -17.7556
  82   2.0000      -0.647590       -17.6218
  83   2.0000      -0.632261       -17.2047
  84   2.0000      -0.623555       -16.9678
  85   2.0000      -0.616093       -16.7647
  86   2.0000      -0.604018       -16.4362
  87   2.0000      -0.588841       -16.0232
  88   2.0000      -0.582942       -15.8627
  89   2.0000      -0.578671       -15.7464
  90   2.0000      -0.574652       -15.6371
  91   2.0000      -0.565715       -15.3939
  92   2.0000      -0.563689       -15.3388
  93   2.0000      -0.554860       -15.0985
  94   2.0000      -0.551240       -15.0000
  95   2.0000      -0.549453       -14.9514
  96   2.0000      -0.541810       -14.7434
  97   2.0000      -0.537868       -14.6361
  98   2.0000      -0.535887       -14.5822
  99   2.0000      -0.533069       -14.5055
 100   2.0000      -0.528858       -14.3910
 101   2.0000      -0.525080       -14.2881
 102   2.0000      -0.518259       -14.1025
 103   2.0000      -0.515425       -14.0254
 104   2.0000      -0.507274       -13.8036
 105   2.0000      -0.496988       -13.5237
 106   2.0000      -0.481933       -13.1141
 107   2.0000      -0.476401       -12.9635
 108   2.0000      -0.470619       -12.8062
 109   2.0000      -0.467848       -12.7308
 110   2.0000      -0.451645       -12.2899
 111   2.0000      -0.450208       -12.2508
 112   2.0000      -0.445845       -12.1321
 113   2.0000      -0.442550       -12.0424
 114   2.0000      -0.435884       -11.8610
 115   2.0000      -0.433736       -11.8026
 116   2.0000      -0.428892       -11.6708
 117   2.0000      -0.416157       -11.3242
 118   2.0000      -0.413178       -11.2431
 119   2.0000      -0.406794       -11.0694
 120   2.0000      -0.394988       -10.7482
 121   2.0000      -0.392660       -10.6848
 122   2.0000      -0.388249       -10.5648
 123   2.0000      -0.381379       -10.3778
 124   2.0000      -0.374639       -10.1945
 125   2.0000      -0.369182       -10.0460
 126   2.0000      -0.363383        -9.8882
 127   2.0000      -0.359672        -9.7872
 128   2.0000      -0.352733        -9.5984
 129   2.0000      -0.336442        -9.1550
 130   2.0000      -0.306408        -8.3378
 131   2.0000      -0.298666        -8.1271
 132   2.0000      -0.288971        -7.8633
 133   0.0000      -0.096365        -2.6222
 134   0.0000      -0.026201        -0.7130
 135   0.0000      -0.001892        -0.0515
 136   0.0000       0.009809         0.2669
 137   0.0000       0.017895         0.4869

MULLIKEN ATOMIC CHARGES
-----------------------
   0 C :   -0.171967
   1 C :   -0.130269
   2 C :   -0.032253
   3 C :    0.163670
   4 C :   -0.233821
   5 C :   -0.082596
   6 C :   -0.027753
   7 C :    0.189907
   8 N :   -0.303111
   9 C :   -0.229011
  10 C :   -0.096984
  11 C :   -0.281138
  12 C :    0.138741
  13 H :    0.130695
  14 H :    0.236509
  15 H :    0.127562
  16 H :    0.157098
  17 H :    0.113686
  18 H :    0.121566
  19 H :    0.117453
  20 S :    0.105799
  21 C :    0.105215
  22 N :   -0.214651
  23 N :   -0.084075
  24 C :    0.106800
  25 C :    0.112613
  26 N :   -0.169646
  27 N :   -0.190623
  28 C :    0.151616
  29 S :    0.065113
  30 C :   -0.001712
  31 N :   -0.225473
  32 C :    0.124847
  33 C :    0.183887
  34 N :   -0.315904
  35 C :   -0.008434
  36 C :   -0.269692
  37 C :    0.132215
  38 C :    0.045408
  39 C :    0.031608
  40 N :   -0.184350
  41 S :    0.230342
  42 N :   -0.225193
  43 H :    0.156378
  44 H :    0.152246
  45 H :    0.121032
  46 H :    0.156652
Sum of atomic charges:   -0.0000000

LOEWDIN ATOMIC CHARGES
----------------------
   0 C :   -0.158707
   1 C :   -0.091594
   2 C :   -0.077792
   3 C :   -0.144591
   4 C :   -0.136615
   5 C :   -0.139729
   6 C :   -0.028260
   7 C :   -0.143315
   8 N :    0.201475
   9 C :   -0.118318
  10 C :   -0.141353
  11 C :   -0.122595
  12 C :   -0.115963
  13 H :    0.145642
  14 H :    0.193476
  15 H :    0.147912
  16 H :    0.154031
  17 H :    0.142453
  18 H :    0.144280
  19 H :    0.143562
  20 S :    0.753042
  21 C :   -0.460345
  22 N :    0.039813
  23 N :    0.065046
  24 C :   -0.384943
  25 C :   -0.458818
  26 N :    0.042878
  27 N :    0.045840
  28 C :   -0.375652
  29 S :    0.739946
  30 C :   -0.188447
  31 N :    0.181089
  32 C :   -0.170541
  33 C :   -0.132493
  34 N :    0.164160
  35 C :   -0.172410
  36 C :   -0.040918
  37 C :   -0.264671
  38 C :   -0.218613
  39 C :   -0.079359
  40 N :   -0.035784
  41 S :    0.560184
  42 N :   -0.069371
  43 H :    0.149329
  44 H :    0.147116
  45 H :    0.145664
  46 H :    0.164260

  Mayer bond orders larger than 0.1
B(  0-C ,  1-C ) :   1.5388 B(  0-C ,  5-C ) :   1.3529 B(  0-C , 19-H ) :   0.9854
B(  1-C ,  2-C ) :   1.2738 B(  1-C , 16-H ) :   0.9333 B(  2-C ,  3-C ) :   1.3584
B(  2-C ,  6-C ) :   1.0915 B(  3-C ,  4-C ) :   1.3095 B(  3-C ,  8-N ) :   1.1147
B(  4-C ,  5-C ) :   1.4870 B(  4-C , 17-H ) :   0.9734 B(  5-C , 18-H ) :   0.9808
B(  6-C ,  7-C ) :   1.3271 B(  6-C , 12-C ) :   1.2450 B(  7-C ,  8-N ) :   1.1523
B(  7-C ,  9-C ) :   1.2819 B(  8-N , 14-H ) :   0.9130 B(  9-C , 10-C ) :   1.4666
B(  9-C , 45-H ) :   0.9768 B( 10-C , 11-C ) :   1.4205 B( 10-C , 15-H ) :   0.9807
B( 11-C , 12-C ) :   1.4006 B( 11-C , 13-H ) :   0.9593 B( 12-C , 28-C ) :   0.9426
B( 20-S , 21-C ) :   1.3324 B( 20-S , 24-C ) :   1.3152 B( 21-C , 22-N ) :   1.6643
B( 21-C , 25-C ) :   0.9635 B( 22-N , 23-N ) :   1.1763 B( 23-N , 24-C ) :   1.6932
B( 23-N , 39-C ) :  -0.1041 B( 24-C , 39-C ) :   0.9805 B( 25-C , 26-N ) :   1.7058
B( 25-C , 29-S ) :   1.3036 B( 26-N , 27-N ) :   1.1221 B( 27-N , 28-C ) :   1.6381
B( 28-C , 29-S ) :   1.2930 B( 30-C , 31-N ) :   1.7269 B( 30-C , 35-C ) :   1.1297
B( 30-C , 44-H ) :   0.9615 B( 31-N , 32-C ) :   1.1604 B( 32-C , 33-C ) :   1.1873
B( 32-C , 36-C ) :   1.5107 B( 33-C , 34-N ) :   1.1009 B( 33-C , 39-C ) :   1.3784
B( 34-N , 35-C ) :   1.7456 B( 35-C , 43-H ) :   0.9558 B( 36-C , 37-C ) :   1.1823
B( 36-C , 46-H ) :   0.9684 B( 37-C , 38-C ) :   1.0520 B( 37-C , 42-N ) :   1.6521
B( 38-C , 39-C ) :   1.0853 B( 38-C , 40-N ) :   1.6895 B( 40-N , 41-S ) :   1.1466
B( 40-N , 42-N ) :   0.1387 B( 41-S , 42-N ) :   1.1610

Dispersion correction           -0.022520729
FINAL SINGLE POINT ENERGY     -2608.517768387714

DIPOLE MOMENT
-------------
                                X             Y             Z
Electronic contribution:    -31.50185      -8.20126      12.27731
Nuclear contribution   :     32.22562       8.85007     -13.23675
                        -----------------------------------------
Total Dipole Moment    :      0.72377       0.64881      -0.95944
                        -----------------------------------------
Magnitude (a.u.)       :      1.36577
Magnitude (Debye)      :      3.47151

                             ****ORCA TERMINATED NORMALLY****
TOTAL RUN TIME: 0 days 0 hours 15 minutes 46 seconds 513 msec
