                         Program Version 4.0.0 -  RELEASE  -
|  1> #
|  2> !wB97X-D3 def2-TZVP def2/J RIJCOSX Grid5 FinalGrid6 TightSCF
|  3> %pal
|  4>  nprocs 24
|  5> end
|  6> %tddft
|  7>   Mode sTDDFT
|  8>   nroots 2
|  9>   Ethresh 10.0
| 10>   maxcore 5000
| 11>   triplets true
| 12> end
| 13> * xyz 0 1
| 14> C -4.71871310 2.18743154 1.85691998
| 15> C -4.13694754 1.13502269 1.15329629
| 16> C -4.94807009 0.32248405 0.34034116
| 17> C -6.34765499 0.58044440 0.30559236
| 18> C -6.93587922 1.64252445 1.00908264
| 19> C -6.09822833 2.44662129 1.77878321
| 20> C -4.72241189 -0.84949666 -0.49043381
| 21> C -6.00679038 -1.26184049 -0.94847360
| 22> N -6.96286741 -0.37672925 -0.48228034
| 23> C -6.20502868 -2.41199018 -1.72771844
| 24> C -5.07954967 -3.17140709 -2.04086007
| 25> C -3.80092606 -2.77735929 -1.62198516
| 26> C -3.58456784 -1.60922129 -0.86717448
| 27> H -2.94294696 -3.37578680 -1.91669664
| 28> H -7.95876588 -0.44853392 -0.65064892
| 29> H -5.18866960 -4.07554976 -2.63347480
| 30> H -3.07219132 0.94542511 1.25312076
| 31> H -8.00643822 1.82370827 0.96293094
| 32> H -6.51849967 3.27757238 2.33904348
| 33> H -4.09607983 2.81883887 2.48489504
| 34> N 2.47785406 0.06978329 0.08228739
| 35> C 1.25404753 0.61273276 -0.27548816
| 36> C 1.28023825 1.96923086 -0.55402064
| 37> S 2.89396865 2.59406915 -0.36356885
| 38> C 3.45854709 0.95604097 0.09304057
| 39> C 0.07685892 -0.24355074 -0.33010698
| 40> S -1.52898600 0.37613731 -0.78529457
| 41> C -2.19487990 -1.24015210 -0.55321232
| 42> C -1.17280085 -2.09586626 -0.18672464
| 43> N 0.07682732 -1.53664222 -0.04809689
| 44> H 0.44462302 2.59048886 -0.85083703
| 45> H -1.31316517 -3.15463474 0.02269471
| 46> C 7.45070569 3.59722020 0.20054318
| 47> S 5.73060244 3.32248324 -0.05758747
| 48> C 5.87886295 1.61794232 0.39562382
| 49> C 7.23285700 1.32514885 0.72614849
| 50> C 8.09987432 2.47337321 0.60459784
| 51> C 7.59971841 0.02847123 1.11894479
| 52> C 6.59782666 -0.93831899 1.16960543
| 53> C 5.23703598 -0.66681156 0.84154620
| 54> C 4.84891774 0.64837206 0.43857314
| 55> S 6.82394122 -2.62508655 1.63593424
| 56> C 5.11400281 -2.94929155 1.39315406
| 57> C 4.42031474 -1.85036208 0.98485034
| 58> H 9.16322562 2.43656166 0.81598653
| 59> H 3.35481080 -1.86834140 0.78707181
| 60> H 4.70527214 -3.93741998 1.56461103
| 61> H 7.88712738 4.57509463 0.03988116
| 62> H -7.19656173 -2.70312937 -2.06247597
| 63> H 8.62965958 -0.20580136 1.37335920
| 64> *
| 65> $new_job
| 66> #
| 67> !wB97X-D3 def2-TZVP def2/J RIJCOSX Grid5 FinalGrid6 TightSCF
| 68> %pal
| 69>  nprocs 24
| 70> end
| 71> %elprop
| 72>    dipole     true
| 73>    quadrupole true
| 74> end
| 75> %tddft
| 76>   Mode sTDDFT
| 77>   nroots 2
| 78>   Ethresh 10.0
| 79>   maxcore 5000
| 80> end
| 81> * xyz 0 1
| 82> C -4.71871310 2.18743154 1.85691998
| 83> C -4.13694754 1.13502269 1.15329629
| 84> C -4.94807009 0.32248405 0.34034116
| 85> C -6.34765499 0.58044440 0.30559236
| 86> C -6.93587922 1.64252445 1.00908264
| 87> C -6.09822833 2.44662129 1.77878321
| 88> C -4.72241189 -0.84949666 -0.49043381
| 89> C -6.00679038 -1.26184049 -0.94847360
| 90> N -6.96286741 -0.37672925 -0.48228034
| 91> C -6.20502868 -2.41199018 -1.72771844
| 92> C -5.07954967 -3.17140709 -2.04086007
| 93> C -3.80092606 -2.77735929 -1.62198516
| 94> C -3.58456784 -1.60922129 -0.86717448
| 95> H -2.94294696 -3.37578680 -1.91669664
| 96> H -7.95876588 -0.44853392 -0.65064892
| 97> H -5.18866960 -4.07554976 -2.63347480
| 98> H -3.07219132 0.94542511 1.25312076
| 99> H -8.00643822 1.82370827 0.96293094
|100> H -6.51849967 3.27757238 2.33904348
|101> H -4.09607983 2.81883887 2.48489504
|102> N 2.47785406 0.06978329 0.08228739
|103> C 1.25404753 0.61273276 -0.27548816
|104> C 1.28023825 1.96923086 -0.55402064
|105> S 2.89396865 2.59406915 -0.36356885
|106> C 3.45854709 0.95604097 0.09304057
|107> C 0.07685892 -0.24355074 -0.33010698
|108> S -1.52898600 0.37613731 -0.78529457
|109> C -2.19487990 -1.24015210 -0.55321232
|110> C -1.17280085 -2.09586626 -0.18672464
|111> N 0.07682732 -1.53664222 -0.04809689
|112> H 0.44462302 2.59048886 -0.85083703
|113> H -1.31316517 -3.15463474 0.02269471
|114> C 7.45070569 3.59722020 0.20054318
|115> S 5.73060244 3.32248324 -0.05758747
|116> C 5.87886295 1.61794232 0.39562382
|117> C 7.23285700 1.32514885 0.72614849
|118> C 8.09987432 2.47337321 0.60459784
|119> C 7.59971841 0.02847123 1.11894479
|120> C 6.59782666 -0.93831899 1.16960543
|121> C 5.23703598 -0.66681156 0.84154620
|122> C 4.84891774 0.64837206 0.43857314
|123> S 6.82394122 -2.62508655 1.63593424
|124> C 5.11400281 -2.94929155 1.39315406
|125> C 4.42031474 -1.85036208 0.98485034
|126> H 9.16322562 2.43656166 0.81598653
|127> H 3.35481080 -1.86834140 0.78707181
|128> H 4.70527214 -3.93741998 1.56461103
|129> H 7.88712738 4.57509463 0.03988116
|130> H -7.19656173 -2.70312937 -2.06247597
|131> H 8.62965958 -0.20580136 1.37335920
|132> *
|133>
|134>                          ****END OF INPUT****
 Total Charge           Charge          ....    0
 Multiplicity           Mult            ....    1
 Number of Electrons    NEL             ....  268
Dispersion correction           -0.025142926
FINAL SINGLE POINT ENERGY     -2833.170133403358

CARTESIAN COORDINATES (ANGSTROEM)
---------------------------------
  C     -4.718713    2.187432    1.856920
  C     -4.136948    1.135023    1.153296
  C     -4.948070    0.322484    0.340341
  C     -6.347655    0.580444    0.305592
  C     -6.935879    1.642524    1.009083
  C     -6.098228    2.446621    1.778783
  C     -4.722412   -0.849497   -0.490434
  C     -6.006790   -1.261840   -0.948474
  N     -6.962867   -0.376729   -0.482280
  C     -6.205029   -2.411990   -1.727718
  C     -5.079550   -3.171407   -2.040860
  C     -3.800926   -2.777359   -1.621985
  C     -3.584568   -1.609221   -0.867174
  H     -2.942947   -3.375787   -1.916697
  H     -7.958766   -0.448534   -0.650649
  H     -5.188670   -4.075550   -2.633475
  H     -3.072191    0.945425    1.253121
  H     -8.006438    1.823708    0.962931
  H     -6.518500    3.277572    2.339043
  H     -4.096080    2.818839    2.484895
  N      2.477854    0.069783    0.082287
  C      1.254048    0.612733   -0.275488
  C      1.280238    1.969231   -0.554021
  S      2.893969    2.594069   -0.363569
  C      3.458547    0.956041    0.093041
  C      0.076859   -0.243551   -0.330107
  S     -1.528986    0.376137   -0.785295
  C     -2.194880   -1.240152   -0.553212
  C     -1.172801   -2.095866   -0.186725
  N      0.076827   -1.536642   -0.048097
  H      0.444623    2.590489   -0.850837
  H     -1.313165   -3.154635    0.022695
  C      7.450706    3.597220    0.200543
  S      5.730602    3.322483   -0.057587
  C      5.878863    1.617942    0.395624
  C      7.232857    1.325149    0.726148
  C      8.099874    2.473373    0.604598
  C      7.599718    0.028471    1.118945
  C      6.597827   -0.938319    1.169605
  C      5.237036   -0.666812    0.841546
  C      4.848918    0.648372    0.438573
  S      6.823941   -2.625087    1.635934
  C      5.114003   -2.949292    1.393154
  C      4.420315   -1.850362    0.984850
  H      9.163226    2.436562    0.815987
  H      3.354811   -1.868341    0.787072
  H      4.705272   -3.937420    1.564611
  H      7.887127    4.575095    0.039881
  H     -7.196562   -2.703129   -2.062476
  H      8.629660   -0.205801    1.373359

 Multiplicity           Mult            ....    1
 Number of Electrons    NEL             ....  268
 Basis Dimension        Dim             .... 1199

ORBITAL ENERGIES
----------------

  NO   OCC          E(Eh)            E(eV)
   0   2.0000     -88.996183     -2421.7093
   1   2.0000     -88.989029     -2421.5146
   2   2.0000     -88.982347     -2421.3328
   3   2.0000     -88.973573     -2421.0940
   4   2.0000     -14.470451      -393.7610
   5   2.0000     -14.432014      -392.7151
   6   2.0000     -14.428621      -392.6227
   7   2.0000     -10.370016      -282.1825
   8   2.0000     -10.360829      -281.9325
   9   2.0000     -10.338871      -281.3350
  10   2.0000     -10.334112      -281.2055
  11   2.0000     -10.331439      -281.1328
  12   2.0000     -10.328677      -281.0576
  13   2.0000     -10.328201      -281.0446
  14   2.0000     -10.327326      -281.0208
  15   2.0000     -10.325174      -280.9623
  16   2.0000     -10.323647      -280.9207
  17   2.0000     -10.322525      -280.8902
  18   2.0000     -10.314628      -280.6753
  19   2.0000     -10.313866      -280.6546
  20   2.0000     -10.313648      -280.6486
  21   2.0000     -10.310088      -280.5518
  22   2.0000     -10.307890      -280.4919
  23   2.0000     -10.306267      -280.4478
  24   2.0000     -10.297967      -280.2219
  25   2.0000     -10.297313      -280.2041
  26   2.0000     -10.292467      -280.0723
  27   2.0000     -10.292440      -280.0715
  28   2.0000     -10.290843      -280.0281
  29   2.0000     -10.288418      -279.9621
  30   2.0000     -10.286843      -279.9192
  31   2.0000     -10.286196      -279.9016
  32   2.0000     -10.284734      -279.8618
  33   2.0000     -10.278225      -279.6847
  34   2.0000     -10.277243      -279.6580
  35   2.0000      -8.092483      -220.2076
  36   2.0000      -8.085766      -220.0249
  37   2.0000      -8.079208      -219.8464
  38   2.0000      -8.070463      -219.6085
  39   2.0000      -6.045678      -164.5113
  40   2.0000      -6.041541      -164.3987
  41   2.0000      -6.039644      -164.3471
  42   2.0000      -6.038815      -164.3245
  43   2.0000      -6.034954      -164.2195
  44   2.0000      -6.032918      -164.1641
  45   2.0000      -6.032878      -164.1630
  46   2.0000      -6.028579      -164.0460
  47   2.0000      -6.025493      -163.9620
  48   2.0000      -6.024069      -163.9232
  49   2.0000      -6.019904      -163.8099
  50   2.0000      -6.016821      -163.7260
  51   2.0000      -1.107263       -30.1302
  52   2.0000      -1.091475       -29.7005
  53   2.0000      -1.070785       -29.1375
  54   2.0000      -1.024960       -27.8906
  55   2.0000      -0.992997       -27.0208
  56   2.0000      -0.979580       -26.6557
  57   2.0000      -0.967781       -26.3347
  58   2.0000      -0.936914       -25.4947
  59   2.0000      -0.924027       -25.1441
  60   2.0000      -0.919889       -25.0315
  61   2.0000      -0.916270       -24.9330
  62   2.0000      -0.899954       -24.4890
  63   2.0000      -0.894047       -24.3283
  64   2.0000      -0.871277       -23.7087
  65   2.0000      -0.854342       -23.2478
  66   2.0000      -0.850700       -23.1487
  67   2.0000      -0.841253       -22.8917
  68   2.0000      -0.835171       -22.7261
  69   2.0000      -0.826561       -22.4919
  70   2.0000      -0.806287       -21.9402
  71   2.0000      -0.768209       -20.9040
  72   2.0000      -0.756735       -20.5918
  73   2.0000      -0.734643       -19.9906
  74   2.0000      -0.723692       -19.6927
  75   2.0000      -0.717221       -19.5166
  76   2.0000      -0.714374       -19.4391
  77   2.0000      -0.700424       -19.0595
  78   2.0000      -0.677804       -18.4440
  79   2.0000      -0.673054       -18.3147
  80   2.0000      -0.667408       -18.1611
  81   2.0000      -0.656403       -17.8616
  82   2.0000      -0.644650       -17.5418
  83   2.0000      -0.639525       -17.4024
  84   2.0000      -0.626280       -17.0419
  85   2.0000      -0.620583       -16.8869
  86   2.0000      -0.614525       -16.7221
  87   2.0000      -0.602374       -16.3914
  88   2.0000      -0.583821       -15.8866
  89   2.0000      -0.574638       -15.6367
  90   2.0000      -0.564914       -15.3721
  91   2.0000      -0.559718       -15.2307
  92   2.0000      -0.556549       -15.1445
  93   2.0000      -0.548510       -14.9257
  94   2.0000      -0.546791       -14.8789
  95   2.0000      -0.539695       -14.6859
  96   2.0000      -0.537042       -14.6137
  97   2.0000      -0.535445       -14.5702
  98   2.0000      -0.533373       -14.5138
  99   2.0000      -0.527548       -14.3553
 100   2.0000      -0.525456       -14.2984
 101   2.0000      -0.522888       -14.2285
 102   2.0000      -0.513144       -13.9634
 103   2.0000      -0.508253       -13.8303
 104   2.0000      -0.501625       -13.6499
 105   2.0000      -0.492216       -13.3939
 106   2.0000      -0.481545       -13.1035
 107   2.0000      -0.474872       -12.9219
 108   2.0000      -0.474278       -12.9058
 109   2.0000      -0.470391       -12.8000
 110   2.0000      -0.468727       -12.7547
 111   2.0000      -0.466728       -12.7003
 112   2.0000      -0.457870       -12.4593
 113   2.0000      -0.453339       -12.3360
 114   2.0000      -0.444829       -12.1044
 115   2.0000      -0.441348       -12.0097
 116   2.0000      -0.435478       -11.8500
 117   2.0000      -0.433565       -11.7979
 118   2.0000      -0.423781       -11.5317
 119   2.0000      -0.421058       -11.4576
 120   2.0000      -0.404473       -11.0063
 121   2.0000      -0.392148       -10.6709
 122   2.0000      -0.383680       -10.4405
 123   2.0000      -0.374934       -10.2025
 124   2.0000      -0.373578       -10.1656
 125   2.0000      -0.363473        -9.8906
 126   2.0000      -0.361137        -9.8270
 127   2.0000      -0.344518        -9.3748
 128   2.0000      -0.343399        -9.3444
 129   2.0000      -0.316561        -8.6141
 130   2.0000      -0.312581        -8.5058
 131   2.0000      -0.299421        -8.1477
 132   2.0000      -0.287105        -7.8125
 133   2.0000      -0.277097        -7.5402
 134   0.0000      -0.014003        -0.3810
 135   0.0000      -0.003219        -0.0876
 136   0.0000       0.030198         0.8217
 137   0.0000       0.039132         1.0648
 138   0.0000       0.056194         1.5291

MULLIKEN ATOMIC CHARGES
-----------------------
   0 C :   -0.176309
   1 C :   -0.127879
   2 C :   -0.038025
   3 C :    0.173043
   4 C :   -0.235580
   5 C :   -0.080903
   6 C :   -0.042484
   7 C :    0.186410
   8 N :   -0.301500
   9 C :   -0.248394
  10 C :   -0.066330
  11 C :   -0.302074
  12 C :    0.206792
  13 H :    0.139049
  14 H :    0.236598
  15 H :    0.125075
  16 H :    0.148134
  17 H :    0.115369
  18 H :    0.123328
  19 H :    0.119237
  20 N :   -0.302884
  21 C :    0.073756
  22 C :   -0.230013
  23 S :    0.061314
  24 C :    0.297705
  25 C :    0.147313
  26 S :    0.001246
  27 C :    0.008544
  28 C :   -0.119976
  29 N :   -0.260705
  30 H :    0.172521
  31 H :    0.158241
  32 C :   -0.170317
  33 S :    0.028697
  34 C :   -0.038958
  35 C :    0.071791
  36 C :   -0.208286
  37 C :   -0.267228
  38 C :    0.027744
  39 C :    0.006082
  40 C :    0.052915
  41 S :    0.044668
  42 C :   -0.111029
  43 C :   -0.317486
  44 H :    0.134865
  45 H :    0.209690
  46 H :    0.165552
  47 H :    0.164092
  48 H :    0.117187
  49 H :    0.129402
Sum of atomic charges:    0.0000000

LOEWDIN ATOMIC CHARGES
----------------------
   0 C :   -0.159031
   1 C :   -0.112960
   2 C :   -0.084457
   3 C :   -0.144947
   4 C :   -0.132812
   5 C :   -0.141428
   6 C :   -0.047398
   7 C :   -0.143732
   8 N :    0.200877
   9 C :   -0.128126
  10 C :   -0.140457
  11 C :   -0.114836
  12 C :   -0.109231
  13 H :    0.151005
  14 H :    0.193263
  15 H :    0.146847
  16 H :    0.142023
  17 H :    0.143212
  18 H :    0.144857
  19 H :    0.143954
  20 N :    0.157610
  21 C :   -0.282493
  22 C :   -0.365068
  23 S :    0.689448
  24 C :   -0.349645
  25 C :   -0.385573
  26 S :    0.733221
  27 C :   -0.320240
  28 C :   -0.226293
  29 N :    0.121996
  30 H :    0.133481
  31 H :    0.144162
  32 C :   -0.361872
  33 S :    0.658033
  34 C :   -0.255774
  35 C :   -0.151805
  36 C :   -0.164193
  37 C :   -0.093718
  38 C :   -0.302171
  39 C :   -0.087916
  40 C :   -0.116307
  41 S :    0.665301
  42 C :   -0.355938
  43 C :   -0.158033
  44 H :    0.147395
  45 H :    0.159304
  46 H :    0.132127
  47 H :    0.132097
  48 H :    0.144116
  49 H :    0.152125

  Mayer bond orders larger than 0.1
B(  0-C ,  1-C ) :   1.5266 B(  0-C ,  5-C ) :   1.3623 B(  0-C , 19-H ) :   0.9835
B(  1-C ,  2-C ) :   1.2697 B(  1-C , 16-H ) :   0.9324 B(  2-C ,  3-C ) :   1.3782
B(  2-C ,  6-C ) :   1.0820 B(  3-C ,  4-C ) :   1.3132 B(  3-C ,  8-N ) :   1.1210
B(  4-C ,  5-C ) :   1.4836 B(  4-C , 17-H ) :   0.9741 B(  5-C , 18-H ) :   0.9806
B(  6-C ,  7-C ) :   1.3370 B(  6-C , 12-C ) :   1.2066 B(  7-C ,  8-N ) :   1.1499
B(  7-C ,  9-C ) :   1.2809 B(  8-N , 14-H ) :   0.9129 B(  9-C , 10-C ) :   1.4690
B(  9-C , 48-H ) :   0.9772 B( 10-C , 11-C ) :   1.3946 B( 10-C , 15-H ) :   0.9803
B( 11-C , 12-C ) :   1.4482 B( 11-C , 13-H ) :   0.9620 B( 12-C , 27-C ) :   0.8060
B( 20-N , 21-C ) :   1.2509 B( 20-N , 24-C ) :   1.6233 B( 21-C , 22-C ) :   1.6520
B( 21-C , 25-C ) :   0.9885 B( 22-C , 23-S ) :   1.2848 B( 22-C , 30-H ) :   0.9320
B( 23-S , 24-C ) :   1.2229 B( 24-C , 40-C ) :   0.9682 B( 25-C , 26-S ) :   1.2876
B( 25-C , 29-N ) :   1.5993 B( 26-S , 27-C ) :   1.2041 B( 27-C , 28-C ) :   1.6171
B( 28-C , 29-N ) :   1.3211 B( 28-C , 31-H ) :   0.9642 B( 32-C , 33-S ) :   1.1904
B( 32-C , 36-C ) :   1.7973 B( 32-C , 47-H ) :   0.9408 B( 33-S , 34-C ) :   1.2267
B( 33-S , 36-C ) :   0.1132 B( 34-C , 35-C ) :   1.2787 B( 34-C , 40-C ) :   1.2115
B( 35-C , 36-C ) :   1.1234 B( 35-C , 37-C ) :   1.3385 B( 36-C , 44-H ) :   0.9628
B( 37-C , 38-C ) :   1.3475 B( 37-C , 49-H ) :   0.9647 B( 38-C , 39-C ) :   1.3025
B( 38-C , 41-S ) :   1.2390 B( 39-C , 40-C ) :   1.2412 B( 39-C , 43-C ) :   1.1577
B( 41-S , 42-C ) :   1.1571 B( 41-S , 43-C ) :   0.1618 B( 42-C , 43-C ) :   1.8337
B( 42-C , 46-H ) :   0.9325 B( 43-C , 45-H ) :   0.8967

Dispersion correction           -0.025142926
FINAL SINGLE POINT ENERGY     -2833.170133220932

DIPOLE MOMENT
-------------
                                X             Y             Z
Electronic contribution:     21.55511       4.11090      -1.72572
Nuclear contribution   :    -22.59509      -3.59189       1.45150
                        -----------------------------------------
Total Dipole Moment    :     -1.03998       0.51901      -0.27422
                        -----------------------------------------
Magnitude (a.u.)       :      1.19420
Magnitude (Debye)      :      3.03542

                             ****ORCA TERMINATED NORMALLY****
TOTAL RUN TIME: 0 days 0 hours 14 minutes 21 seconds 926 msec
