                         Program Version 4.0.0 -  RELEASE  -
|  1> #
|  2> !wB97X-D3 def2-TZVP def2/J RIJCOSX Grid5 FinalGrid6 TightSCF
|  3> %pal
|  4>  nprocs 24
|  5> end
|  6> %tddft
|  7>   Mode sTDDFT
|  8>   nroots 2
|  9>   Ethresh 10.0
| 10>   maxcore 5000
| 11>   triplets true
| 12> end
| 13> * xyz 0 1
| 14> C -4.01440699 -2.41403164 -1.71822362
| 15> C -3.54478687 -1.40494586 -0.88049207
| 16> C -4.43145080 -0.80752227 0.03430504
| 17> C -5.78978058 -1.23271187 0.04230023
| 18> C -6.26299578 -2.25507004 -0.79434679
| 19> C -5.35252044 -2.84304737 -1.66954975
| 20> C -4.32816988 0.26417630 1.01133586
| 21> C -5.64069447 0.45582594 1.52949955
| 22> N -6.49568722 -0.46925891 0.95620694
| 23> C -5.95346221 1.46530664 2.45308810
| 24> C -4.91877793 2.31226702 2.84688715
| 25> C -3.61480511 2.13783062 2.36309780
| 26> C -3.27970124 1.10606686 1.46696637
| 27> H -2.82834582 2.80127346 2.71441278
| 28> H -7.48952340 -0.53869907 1.13724201
| 29> H -5.12098618 3.11584629 3.54978840
| 30> H -2.51115399 -1.07996737 -0.95409652
| 31> H -7.30324549 -2.56850047 -0.76723829
| 32> H -5.68349181 -3.63686577 -2.33390243
| 33> H -3.33466923 -2.87934780 -2.42669391
| 34> N 2.89110017 0.55714381 0.00916029
| 35> C 1.90556072 1.51349277 0.22192348
| 36> C 2.32233469 2.82556552 0.10000122
| 37> S 4.02966197 2.88468550 -0.30022763
| 38> C 4.06690431 1.07452315 -0.27531853
| 39> C 0.54932542 1.09088543 0.54585423
| 40> S -0.76903366 2.25786981 0.82220012
| 41> C -1.87656168 0.91002133 1.08309290
| 42> C -1.17483501 -0.27617730 0.96732084
| 43> N 0.16291320 -0.16880419 0.66729018
| 44> H 1.72640297 3.72062553 0.22273677
| 45> H -1.60922491 -1.25954496 1.13393080
| 46> C 7.60455067 -1.26296122 -1.05895068
| 47> C 7.68567995 0.13923809 -1.10463412
| 48> C 6.53808681 0.90932512 -0.85063755
| 49> C 5.28116821 0.30607810 -0.54494888
| 50> C 5.24447094 -1.12104731 -0.50921638
| 51> C 6.38726450 -1.89860232 -0.76190228
| 52> O 4.08738695 -1.74220061 -0.22660543
| 53> O 6.67237100 2.24814208 -0.90755010
| 54> O 8.69796698 -2.01897524 -1.30053429
| 55> H 9.46146776 -1.45822170 -1.48994285
| 56> H 5.82072049 2.69357148 -0.71671210
| 57> H 4.20180014 -2.70095317 -0.23457670
| 58> H 6.33364422 -2.98167993 -0.72872094
| 59> H -6.96368893 1.59071534 2.83213597
| 60> H 8.62081756 0.63896020 -1.33305517
| 61> *
| 62> $new_job
| 63> #
| 64> !wB97X-D3 def2-TZVP def2/J RIJCOSX Grid5 FinalGrid6 TightSCF
| 65> %pal
| 66>  nprocs 24
| 67> end
| 68> %elprop
| 69>    dipole     true
| 70>    quadrupole true
| 71> end
| 72> %tddft
| 73>   Mode sTDDFT
| 74>   nroots 2
| 75>   Ethresh 10.0
| 76>   maxcore 5000
| 77> end
| 78> * xyz 0 1
| 79> C -4.01440699 -2.41403164 -1.71822362
| 80> C -3.54478687 -1.40494586 -0.88049207
| 81> C -4.43145080 -0.80752227 0.03430504
| 82> C -5.78978058 -1.23271187 0.04230023
| 83> C -6.26299578 -2.25507004 -0.79434679
| 84> C -5.35252044 -2.84304737 -1.66954975
| 85> C -4.32816988 0.26417630 1.01133586
| 86> C -5.64069447 0.45582594 1.52949955
| 87> N -6.49568722 -0.46925891 0.95620694
| 88> C -5.95346221 1.46530664 2.45308810
| 89> C -4.91877793 2.31226702 2.84688715
| 90> C -3.61480511 2.13783062 2.36309780
| 91> C -3.27970124 1.10606686 1.46696637
| 92> H -2.82834582 2.80127346 2.71441278
| 93> H -7.48952340 -0.53869907 1.13724201
| 94> H -5.12098618 3.11584629 3.54978840
| 95> H -2.51115399 -1.07996737 -0.95409652
| 96> H -7.30324549 -2.56850047 -0.76723829
| 97> H -5.68349181 -3.63686577 -2.33390243
| 98> H -3.33466923 -2.87934780 -2.42669391
| 99> N 2.89110017 0.55714381 0.00916029
|100> C 1.90556072 1.51349277 0.22192348
|101> C 2.32233469 2.82556552 0.10000122
|102> S 4.02966197 2.88468550 -0.30022763
|103> C 4.06690431 1.07452315 -0.27531853
|104> C 0.54932542 1.09088543 0.54585423
|105> S -0.76903366 2.25786981 0.82220012
|106> C -1.87656168 0.91002133 1.08309290
|107> C -1.17483501 -0.27617730 0.96732084
|108> N 0.16291320 -0.16880419 0.66729018
|109> H 1.72640297 3.72062553 0.22273677
|110> H -1.60922491 -1.25954496 1.13393080
|111> C 7.60455067 -1.26296122 -1.05895068
|112> C 7.68567995 0.13923809 -1.10463412
|113> C 6.53808681 0.90932512 -0.85063755
|114> C 5.28116821 0.30607810 -0.54494888
|115> C 5.24447094 -1.12104731 -0.50921638
|116> C 6.38726450 -1.89860232 -0.76190228
|117> O 4.08738695 -1.74220061 -0.22660543
|118> O 6.67237100 2.24814208 -0.90755010
|119> O 8.69796698 -2.01897524 -1.30053429
|120> H 9.46146776 -1.45822170 -1.48994285
|121> H 5.82072049 2.69357148 -0.71671210
|122> H 4.20180014 -2.70095317 -0.23457670
|123> H 6.33364422 -2.98167993 -0.72872094
|124> H -6.96368893 1.59071534 2.83213597
|125> H 8.62081756 0.63896020 -1.33305517
|126> *
|127>
|128>                          ****END OF INPUT****
 Total Charge           Charge          ....    0
 Multiplicity           Mult            ....    1
 Number of Electrons    NEL             ....  236
Dispersion correction           -0.021820938
FINAL SINGLE POINT ENERGY     -2110.017220468086

CARTESIAN COORDINATES (ANGSTROEM)
---------------------------------
  C     -4.014407   -2.414032   -1.718224
  C     -3.544787   -1.404946   -0.880492
  C     -4.431451   -0.807522    0.034305
  C     -5.789781   -1.232712    0.042300
  C     -6.262996   -2.255070   -0.794347
  C     -5.352520   -2.843047   -1.669550
  C     -4.328170    0.264176    1.011336
  C     -5.640694    0.455826    1.529500
  N     -6.495687   -0.469259    0.956207
  C     -5.953462    1.465307    2.453088
  C     -4.918778    2.312267    2.846887
  C     -3.614805    2.137831    2.363098
  C     -3.279701    1.106067    1.466966
  H     -2.828346    2.801273    2.714413
  H     -7.489523   -0.538699    1.137242
  H     -5.120986    3.115846    3.549788
  H     -2.511154   -1.079967   -0.954097
  H     -7.303245   -2.568500   -0.767238
  H     -5.683492   -3.636866   -2.333902
  H     -3.334669   -2.879348   -2.426694
  N      2.891100    0.557144    0.009160
  C      1.905561    1.513493    0.221923
  C      2.322335    2.825566    0.100001
  S      4.029662    2.884685   -0.300228
  C      4.066904    1.074523   -0.275319
  C      0.549325    1.090885    0.545854
  S     -0.769034    2.257870    0.822200
  C     -1.876562    0.910021    1.083093
  C     -1.174835   -0.276177    0.967321
  N      0.162913   -0.168804    0.667290
  H      1.726403    3.720626    0.222737
  H     -1.609225   -1.259545    1.133931
  C      7.604551   -1.262961   -1.058951
  C      7.685680    0.139238   -1.104634
  C      6.538087    0.909325   -0.850638
  C      5.281168    0.306078   -0.544949
  C      5.244471   -1.121047   -0.509216
  C      6.387264   -1.898602   -0.761902
  O      4.087387   -1.742201   -0.226605
  O      6.672371    2.248142   -0.907550
  O      8.697967   -2.018975   -1.300534
  H      9.461468   -1.458222   -1.489943
  H      5.820720    2.693571   -0.716712
  H      4.201800   -2.700953   -0.234577
  H      6.333644   -2.981680   -0.728721
  H     -6.963689    1.590715    2.832136
  H      8.620818    0.638960   -1.333055

 Multiplicity           Mult            ....    1
 Number of Electrons    NEL             ....  236
 Basis Dimension        Dim             .... 1094

ORBITAL ENERGIES
----------------

  NO   OCC          E(Eh)            E(eV)
   0   2.0000     -88.998486     -2421.7719
   1   2.0000     -88.988220     -2421.4926
   2   2.0000     -19.277801      -524.5756
   3   2.0000     -19.275002      -524.4995
   4   2.0000     -19.266737      -524.2746
   5   2.0000     -14.469474      -393.7344
   6   2.0000     -14.426756      -392.5720
   7   2.0000     -14.424511      -392.5109
   8   2.0000     -10.372463      -282.2491
   9   2.0000     -10.369971      -282.1813
  10   2.0000     -10.368105      -282.1305
  11   2.0000     -10.365301      -282.0542
  12   2.0000     -10.359228      -281.8889
  13   2.0000     -10.339986      -281.3653
  14   2.0000     -10.330594      -281.1097
  15   2.0000     -10.329388      -281.0769
  16   2.0000     -10.327789      -281.0334
  17   2.0000     -10.326894      -281.0091
  18   2.0000     -10.312898      -280.6282
  19   2.0000     -10.312101      -280.6065
  20   2.0000     -10.302777      -280.3528
  21   2.0000     -10.297014      -280.1960
  22   2.0000     -10.291447      -280.0445
  23   2.0000     -10.290996      -280.0322
  24   2.0000     -10.290390      -280.0157
  25   2.0000     -10.287275      -279.9310
  26   2.0000     -10.285432      -279.8808
  27   2.0000     -10.284386      -279.8524
  28   2.0000     -10.283921      -279.8397
  29   2.0000     -10.279227      -279.7120
  30   2.0000     -10.278809      -279.7006
  31   2.0000     -10.275724      -279.6167
  32   2.0000      -8.096160      -220.3077
  33   2.0000      -8.084819      -219.9991
  34   2.0000      -6.049181      -164.6066
  35   2.0000      -6.045646      -164.5104
  36   2.0000      -6.042977      -164.4378
  37   2.0000      -6.037863      -164.2986
  38   2.0000      -6.034048      -164.1948
  39   2.0000      -6.031993      -164.1389
  40   2.0000      -1.198703       -32.6184
  41   2.0000      -1.196144       -32.5487
  42   2.0000      -1.190966       -32.4078
  43   2.0000      -1.106093       -30.0983
  44   2.0000      -1.087607       -29.5953
  45   2.0000      -1.067952       -29.0605
  46   2.0000      -0.979073       -26.6419
  47   2.0000      -0.971512       -26.4362
  48   2.0000      -0.966376       -26.2964
  49   2.0000      -0.923403       -25.1271
  50   2.0000      -0.919621       -25.0242
  51   2.0000      -0.913205       -24.8496
  52   2.0000      -0.900590       -24.5063
  53   2.0000      -0.878137       -23.8953
  54   2.0000      -0.865966       -23.5641
  55   2.0000      -0.863777       -23.5046
  56   2.0000      -0.845763       -23.0144
  57   2.0000      -0.840328       -22.8665
  58   2.0000      -0.823323       -22.4038
  59   2.0000      -0.769816       -20.9478
  60   2.0000      -0.758396       -20.6370
  61   2.0000      -0.750515       -20.4226
  62   2.0000      -0.737773       -20.0758
  63   2.0000      -0.720660       -19.6101
  64   2.0000      -0.717887       -19.5347
  65   2.0000      -0.709302       -19.3011
  66   2.0000      -0.697026       -18.9670
  67   2.0000      -0.695006       -18.9121
  68   2.0000      -0.669548       -18.2193
  69   2.0000      -0.647014       -17.6061
  70   2.0000      -0.639954       -17.4140
  71   2.0000      -0.621548       -16.9132
  72   2.0000      -0.616800       -16.7840
  73   2.0000      -0.613732       -16.7005
  74   2.0000      -0.612093       -16.6559
  75   2.0000      -0.611247       -16.6329
  76   2.0000      -0.604910       -16.4604
  77   2.0000      -0.578148       -15.7322
  78   2.0000      -0.568875       -15.4799
  79   2.0000      -0.559012       -15.2115
  80   2.0000      -0.557863       -15.1802
  81   2.0000      -0.553830       -15.0705
  82   2.0000      -0.546545       -14.8723
  83   2.0000      -0.542392       -14.7592
  84   2.0000      -0.537155       -14.6167
  85   2.0000      -0.532505       -14.4902
  86   2.0000      -0.529767       -14.4157
  87   2.0000      -0.526476       -14.3261
  88   2.0000      -0.521928       -14.2024
  89   2.0000      -0.513146       -13.9634
  90   2.0000      -0.510068       -13.8796
  91   2.0000      -0.507371       -13.8063
  92   2.0000      -0.506918       -13.7939
  93   2.0000      -0.496658       -13.5148
  94   2.0000      -0.489229       -13.3126
  95   2.0000      -0.473939       -12.8965
  96   2.0000      -0.470254       -12.7963
  97   2.0000      -0.469615       -12.7789
  98   2.0000      -0.465799       -12.6750
  99   2.0000      -0.464651       -12.6438
 100   2.0000      -0.453204       -12.3323
 101   2.0000      -0.448659       -12.2086
 102   2.0000      -0.443921       -12.0797
 103   2.0000      -0.439414       -11.9571
 104   2.0000      -0.433770       -11.8035
 105   2.0000      -0.408017       -11.1027
 106   2.0000      -0.394890       -10.7455
 107   2.0000      -0.382620       -10.4116
 108   2.0000      -0.378792       -10.3074
 109   2.0000      -0.371871       -10.1191
 110   2.0000      -0.369036       -10.0420
 111   2.0000      -0.356277        -9.6948
 112   2.0000      -0.350054        -9.5254
 113   2.0000      -0.319983        -8.7072
 114   2.0000      -0.311119        -8.4660
 115   2.0000      -0.299843        -8.1592
 116   2.0000      -0.293608        -7.9895
 117   2.0000      -0.278712        -7.5841
 118   0.0000      -0.007296        -0.1985
 119   0.0000       0.018761         0.5105
 120   0.0000       0.035189         0.9575
 121   0.0000       0.055038         1.4977
 122   0.0000       0.060269         1.6400

MULLIKEN ATOMIC CHARGES
-----------------------
   0 C :   -0.154661
   1 C :   -0.223526
   2 C :   -0.034659
   3 C :    0.171218
   4 C :   -0.228698
   5 C :   -0.089584
   6 C :   -0.025262
   7 C :    0.182387
   8 N :   -0.301388
   9 C :   -0.242945
  10 C :   -0.078715
  11 C :   -0.276302
  12 C :    0.217713
  13 H :    0.129099
  14 H :    0.236310
  15 H :    0.124261
  16 H :    0.212722
  17 H :    0.113973
  18 H :    0.122908
  19 H :    0.121493
  20 N :   -0.233037
  21 C :    0.064317
  22 C :   -0.247209
  23 S :   -0.040053
  24 C :    0.275292
  25 C :    0.147654
  26 S :    0.006268
  27 C :    0.049133
  28 C :   -0.234828
  29 N :   -0.230742
  30 H :    0.174001
  31 H :    0.192403
  32 C :    0.345880
  33 C :   -0.371593
  34 C :    0.246898
  35 C :   -0.189508
  36 C :    0.224006
  37 C :   -0.345327
  38 O :   -0.352327
  39 O :   -0.392262
  40 O :   -0.408811
  41 H :    0.335349
  42 H :    0.325706
  43 H :    0.324701
  44 H :    0.119667
  45 H :    0.116673
  46 H :    0.121405
Sum of atomic charges:   -0.0000000

LOEWDIN ATOMIC CHARGES
----------------------
   0 C :   -0.157411
   1 C :   -0.104314
   2 C :   -0.081367
   3 C :   -0.145274
   4 C :   -0.132852
   5 C :   -0.141538
   6 C :   -0.040961
   7 C :   -0.143565
   8 N :    0.200418
   9 C :   -0.128931
  10 C :   -0.141103
  11 C :   -0.125981
  12 C :   -0.110565
  13 H :    0.145578
  14 H :    0.193108
  15 H :    0.146645
  16 H :    0.155042
  17 H :    0.143117
  18 H :    0.144753
  19 H :    0.144548
  20 N :    0.167874
  21 C :   -0.276108
  22 C :   -0.363715
  23 S :    0.645722
  24 C :   -0.337139
  25 C :   -0.382478
  26 S :    0.714343
  27 C :   -0.319401
  28 C :   -0.229466
  29 N :    0.130807
  30 H :    0.132876
  31 H :    0.149158
  32 C :   -0.266434
  33 C :   -0.150928
  34 C :   -0.229208
  35 C :   -0.137174
  36 C :   -0.217325
  37 C :   -0.148086
  38 O :    0.137195
  39 O :    0.113507
  40 O :    0.097792
  41 H :    0.195384
  42 H :    0.121867
  43 H :    0.194010
  44 H :    0.146881
  45 H :    0.143894
  46 H :    0.146805

  Mayer bond orders larger than 0.1
B(  0-C ,  1-C ) :   1.5380 B(  0-C ,  5-C ) :   1.3590 B(  0-C , 19-H ) :   0.9825
B(  1-C ,  2-C ) :   1.2800 B(  1-C , 16-H ) :   0.9187 B(  2-C ,  3-C ) :   1.3729
B(  2-C ,  6-C ) :   1.0681 B(  3-C ,  4-C ) :   1.3051 B(  3-C ,  8-N ) :   1.1212
B(  4-C ,  5-C ) :   1.4808 B(  4-C , 17-H ) :   0.9780 B(  5-C , 18-H ) :   0.9814
B(  6-C ,  7-C ) :   1.3313 B(  6-C , 12-C ) :   1.2219 B(  7-C ,  8-N ) :   1.1504
B(  7-C ,  9-C ) :   1.2828 B(  8-N , 14-H ) :   0.9122 B(  9-C , 10-C ) :   1.4692
B(  9-C , 45-H ) :   0.9771 B( 10-C , 11-C ) :   1.4047 B( 10-C , 15-H ) :   0.9807
B( 11-C , 12-C ) :   1.4271 B( 11-C , 13-H ) :   0.9614 B( 12-C , 27-C ) :   0.8289
B( 20-N , 21-C ) :   1.2756 B( 20-N , 24-C ) :   1.6865 B( 21-C , 22-C ) :   1.6633
B( 21-C , 25-C ) :   0.9985 B( 22-C , 23-S ) :   1.2271 B( 22-C , 30-H ) :   0.9283
B( 23-S , 24-C ) :   1.1630 B( 24-C , 35-C ) :   0.9748 B( 25-C , 26-S ) :   1.3087
B( 25-C , 29-N ) :   1.6280 B( 26-S , 27-C ) :   1.2462 B( 26-S , 28-C ) :   0.1073
B( 27-C , 28-C ) :   1.5903 B( 28-C , 29-N ) :   1.3088 B( 28-C , 31-H ) :   0.9714
B( 32-C , 33-C ) :   1.3316 B( 32-C , 37-C ) :   1.4124 B( 32-C , 40-O ) :   1.1313
B( 33-C , 34-C ) :   1.4795 B( 33-C , 46-H ) :   0.9345 B( 34-C , 35-C ) :   1.2117
B( 34-C , 39-O ) :   1.1508 B( 35-C , 36-C ) :   1.3141 B( 36-C , 37-C ) :   1.4147
B( 36-C , 38-O ) :   1.2434 B( 37-C , 44-H ) :   0.9534 B( 38-O , 43-H ) :   0.8727
B( 39-O , 42-H ) :   0.8228 B( 40-O , 41-H ) :   0.8753

Dispersion correction           -0.021820938
FINAL SINGLE POINT ENERGY     -2110.017220395557

DIPOLE MOMENT
-------------
                                X             Y             Z
Electronic contribution:     11.70372       9.07535       1.27473
Nuclear contribution   :    -12.54012      -8.95286      -1.17491
                        -----------------------------------------
Total Dipole Moment    :     -0.83640       0.12249       0.09982
                        -----------------------------------------
Magnitude (a.u.)       :      0.85119
Magnitude (Debye)      :      2.16356

                             ****ORCA TERMINATED NORMALLY****
TOTAL RUN TIME: 0 days 0 hours 11 minutes 49 seconds 721 msec
