                         Program Version 4.0.0 -  RELEASE  -
|  1> #
|  2> !wB97X-D3 def2-TZVP def2/J RIJCOSX Grid5 FinalGrid6 TightSCF
|  3> %pal
|  4>  nprocs 24
|  5> end
|  6> %tddft
|  7>   Mode sTDDFT
|  8>   nroots 2
|  9>   Ethresh 10.0
| 10>   maxcore 5000
| 11>   triplets true
| 12> end
| 13> * xyz 0 1
| 14> C -7.42067352 1.61958945 -1.93067663
| 15> C -6.12537630 1.60907995 -1.47498114
| 16> C -5.59924394 0.44966901 -0.81908835
| 17> C -6.44758227 -0.70593303 -0.65545390
| 18> C -7.79293668 -0.65148875 -1.14548217
| 19> C -8.26034853 0.48207475 -1.76311649
| 20> N -4.32057146 0.45556073 -0.36678231
| 21> C -3.86650457 -0.65910451 0.25218844
| 22> C -4.71033544 -1.82800205 0.38573060
| 23> N -5.98935803 -1.83609697 -0.06462685
| 24> C -4.18139648 -3.00711345 1.00175348
| 25> C -2.88432491 -3.02427845 1.45309931
| 26> C -2.05503197 -1.88001801 1.33295852
| 27> C -2.51009238 -0.70215983 0.76110872
| 28> H -1.04237872 -1.92884667 1.72505067
| 29> H -2.47991165 -3.91869280 1.92008859
| 30> H -4.81944437 -3.88070743 1.10407391
| 31> H -9.28164446 0.52091865 -2.13354761
| 32> H -5.48547450 2.47893308 -1.60173052
| 33> H -7.81875166 2.50177202 -2.42563114
| 34> S 2.53170458 3.45541846 0.41590688
| 35> C 1.88783949 1.82228360 0.46371463
| 36> C 2.91030654 0.89258676 0.40204882
| 37> C 4.21851988 1.48115159 0.32252934
| 38> C 4.17104975 2.86195119 0.32845571
| 39> C 0.46610477 1.57496764 0.56273092
| 40> C -0.18707662 0.35915440 0.60472820
| 41> C -1.61661304 0.47123141 0.68472498
| 42> C -2.03334347 1.79076272 0.71367560
| 43> S -0.68959670 2.89861814 0.64130068
| 44> H 0.33696459 -0.58950209 0.55411351
| 45> H 2.73145477 -0.17534175 0.47641704
| 46> H -3.05150218 2.14596093 0.80126168
| 47> H 5.01711773 3.53398962 0.26873165
| 48> C 5.48229193 0.70866070 0.26519451
| 49> C 5.60200953 -0.47614797 -0.49933169
| 50> C 6.80528347 -1.19090794 -0.51683322
| 51> C 7.91715838 -0.74608716 0.21643221
| 52> C 7.82137276 0.43610659 0.96468596
| 53> C 6.61775832 1.14572143 0.97757545
| 54> O 9.06617779 -1.47313779 0.17014306
| 55> O 6.91335625 -2.34625276 -1.27351174
| 56> O 4.58004064 -0.95907396 -1.28878220
| 57> H 6.54237709 2.05279125 1.56977820
| 58> H 8.90679705 -2.23679441 -0.40595602
| 59> H 6.05811975 -2.47465029 -1.71416357
| 60> H 3.84461814 -0.32817881 -1.29079678
| 61> H -8.43508267 -1.51964635 -1.01993285
| 62> H 8.67617330 0.78950914 1.53012393
| 63> *
| 64> $new_job
| 65> #
| 66> !wB97X-D3 def2-TZVP def2/J RIJCOSX Grid5 FinalGrid6 TightSCF
| 67> %pal
| 68>  nprocs 24
| 69> end
| 70> %elprop
| 71>    dipole     true
| 72>    quadrupole true
| 73> end
| 74> %tddft
| 75>   Mode sTDDFT
| 76>   nroots 2
| 77>   Ethresh 10.0
| 78>   maxcore 5000
| 79> end
| 80> * xyz 0 1
| 81> C -7.42067352 1.61958945 -1.93067663
| 82> C -6.12537630 1.60907995 -1.47498114
| 83> C -5.59924394 0.44966901 -0.81908835
| 84> C -6.44758227 -0.70593303 -0.65545390
| 85> C -7.79293668 -0.65148875 -1.14548217
| 86> C -8.26034853 0.48207475 -1.76311649
| 87> N -4.32057146 0.45556073 -0.36678231
| 88> C -3.86650457 -0.65910451 0.25218844
| 89> C -4.71033544 -1.82800205 0.38573060
| 90> N -5.98935803 -1.83609697 -0.06462685
| 91> C -4.18139648 -3.00711345 1.00175348
| 92> C -2.88432491 -3.02427845 1.45309931
| 93> C -2.05503197 -1.88001801 1.33295852
| 94> C -2.51009238 -0.70215983 0.76110872
| 95> H -1.04237872 -1.92884667 1.72505067
| 96> H -2.47991165 -3.91869280 1.92008859
| 97> H -4.81944437 -3.88070743 1.10407391
| 98> H -9.28164446 0.52091865 -2.13354761
| 99> H -5.48547450 2.47893308 -1.60173052
|100> H -7.81875166 2.50177202 -2.42563114
|101> S 2.53170458 3.45541846 0.41590688
|102> C 1.88783949 1.82228360 0.46371463
|103> C 2.91030654 0.89258676 0.40204882
|104> C 4.21851988 1.48115159 0.32252934
|105> C 4.17104975 2.86195119 0.32845571
|106> C 0.46610477 1.57496764 0.56273092
|107> C -0.18707662 0.35915440 0.60472820
|108> C -1.61661304 0.47123141 0.68472498
|109> C -2.03334347 1.79076272 0.71367560
|110> S -0.68959670 2.89861814 0.64130068
|111> H 0.33696459 -0.58950209 0.55411351
|112> H 2.73145477 -0.17534175 0.47641704
|113> H -3.05150218 2.14596093 0.80126168
|114> H 5.01711773 3.53398962 0.26873165
|115> C 5.48229193 0.70866070 0.26519451
|116> C 5.60200953 -0.47614797 -0.49933169
|117> C 6.80528347 -1.19090794 -0.51683322
|118> C 7.91715838 -0.74608716 0.21643221
|119> C 7.82137276 0.43610659 0.96468596
|120> C 6.61775832 1.14572143 0.97757545
|121> O 9.06617779 -1.47313779 0.17014306
|122> O 6.91335625 -2.34625276 -1.27351174
|123> O 4.58004064 -0.95907396 -1.28878220
|124> H 6.54237709 2.05279125 1.56977820
|125> H 8.90679705 -2.23679441 -0.40595602
|126> H 6.05811975 -2.47465029 -1.71416357
|127> H 3.84461814 -0.32817881 -1.29079678
|128> H -8.43508267 -1.51964635 -1.01993285
|129> H 8.67617330 0.78950914 1.53012393
|130> *
|131>
|132>                          ****END OF INPUT****
 Total Charge           Charge          ....    0
 Multiplicity           Mult            ....    1
 Number of Electrons    NEL             ....  242
Dispersion correction           -0.022645166
FINAL SINGLE POINT ENERGY     -2132.073254498450

CARTESIAN COORDINATES (ANGSTROEM)
---------------------------------
  C     -7.420674    1.619589   -1.930677
  C     -6.125376    1.609080   -1.474981
  C     -5.599244    0.449669   -0.819088
  C     -6.447582   -0.705933   -0.655454
  C     -7.792937   -0.651489   -1.145482
  C     -8.260349    0.482075   -1.763116
  N     -4.320571    0.455561   -0.366782
  C     -3.866505   -0.659105    0.252188
  C     -4.710335   -1.828002    0.385731
  N     -5.989358   -1.836097   -0.064627
  C     -4.181396   -3.007113    1.001753
  C     -2.884325   -3.024278    1.453099
  C     -2.055032   -1.880018    1.332959
  C     -2.510092   -0.702160    0.761109
  H     -1.042379   -1.928847    1.725051
  H     -2.479912   -3.918693    1.920089
  H     -4.819444   -3.880707    1.104074
  H     -9.281644    0.520919   -2.133548
  H     -5.485474    2.478933   -1.601731
  H     -7.818752    2.501772   -2.425631
  S      2.531705    3.455418    0.415907
  C      1.887839    1.822284    0.463715
  C      2.910307    0.892587    0.402049
  C      4.218520    1.481152    0.322529
  C      4.171050    2.861951    0.328456
  C      0.466105    1.574968    0.562731
  C     -0.187077    0.359154    0.604728
  C     -1.616613    0.471231    0.684725
  C     -2.033343    1.790763    0.713676
  S     -0.689597    2.898618    0.641301
  H      0.336965   -0.589502    0.554114
  H      2.731455   -0.175342    0.476417
  H     -3.051502    2.145961    0.801262
  H      5.017118    3.533990    0.268732
  C      5.482292    0.708661    0.265195
  C      5.602010   -0.476148   -0.499332
  C      6.805283   -1.190908   -0.516833
  C      7.917158   -0.746087    0.216432
  C      7.821373    0.436107    0.964686
  C      6.617758    1.145721    0.977575
  O      9.066178   -1.473138    0.170143
  O      6.913356   -2.346253   -1.273512
  O      4.580041   -0.959074   -1.288782
  H      6.542377    2.052791    1.569778
  H      8.906797   -2.236794   -0.405956
  H      6.058120   -2.474650   -1.714164
  H      3.844618   -0.328179   -1.290797
  H     -8.435083   -1.519646   -1.019933
  H      8.676173    0.789509    1.530124

 Multiplicity           Mult            ....    1
 Number of Electrons    NEL             ....  242
 Basis Dimension        Dim             .... 1131

ORBITAL ENERGIES
----------------

  NO   OCC          E(Eh)            E(eV)
   0   2.0000     -88.991936     -2421.5937
   1   2.0000     -88.987756     -2421.4800
   2   2.0000     -19.279749      -524.6286
   3   2.0000     -19.272307      -524.4261
   4   2.0000     -19.263035      -524.1738
   5   2.0000     -14.449213      -393.1831
   6   2.0000     -14.449124      -393.1807
   7   2.0000     -10.354874      -281.7704
   8   2.0000     -10.349007      -281.6108
   9   2.0000     -10.344778      -281.4957
  10   2.0000     -10.343782      -281.4686
  11   2.0000     -10.341897      -281.4173
  12   2.0000     -10.341623      -281.4099
  13   2.0000     -10.340831      -281.3883
  14   2.0000     -10.340712      -281.3851
  15   2.0000     -10.334798      -281.2242
  16   2.0000     -10.319042      -280.7954
  17   2.0000     -10.318890      -280.7913
  18   2.0000     -10.317510      -280.7537
  19   2.0000     -10.312216      -280.6097
  20   2.0000     -10.307147      -280.4717
  21   2.0000     -10.305399      -280.4242
  22   2.0000     -10.304853      -280.4093
  23   2.0000     -10.304821      -280.4084
  24   2.0000     -10.304394      -280.3968
  25   2.0000     -10.301654      -280.3223
  26   2.0000     -10.301000      -280.3045
  27   2.0000     -10.300441      -280.2892
  28   2.0000     -10.299186      -280.2551
  29   2.0000     -10.298899      -280.2473
  30   2.0000     -10.298772      -280.2438
  31   2.0000     -10.288246      -279.9574
  32   2.0000     -10.280000      -279.7330
  33   2.0000      -8.088252      -220.0925
  34   2.0000      -8.084230      -219.9831
  35   2.0000      -6.041517      -164.3980
  36   2.0000      -6.037537      -164.2897
  37   2.0000      -6.037326      -164.2840
  38   2.0000      -6.035425      -164.2323
  39   2.0000      -6.033288      -164.1741
  40   2.0000      -6.031393      -164.1225
  41   2.0000      -1.203064       -32.7370
  42   2.0000      -1.184694       -32.2372
  43   2.0000      -1.163759       -31.6675
  44   2.0000      -1.104317       -30.0500
  45   2.0000      -1.034521       -28.1508
  46   2.0000      -1.022923       -27.8351
  47   2.0000      -1.004397       -27.3310
  48   2.0000      -0.991481       -26.9796
  49   2.0000      -0.970946       -26.4208
  50   2.0000      -0.964616       -26.2485
  51   2.0000      -0.913429       -24.8557
  52   2.0000      -0.895774       -24.3752
  53   2.0000      -0.884320       -24.0636
  54   2.0000      -0.877746       -23.8847
  55   2.0000      -0.874315       -23.7913
  56   2.0000      -0.859990       -23.4015
  57   2.0000      -0.843903       -22.9638
  58   2.0000      -0.842096       -22.9146
  59   2.0000      -0.814981       -22.1768
  60   2.0000      -0.803521       -21.8649
  61   2.0000      -0.766255       -20.8509
  62   2.0000      -0.753163       -20.4946
  63   2.0000      -0.741538       -20.1783
  64   2.0000      -0.734994       -20.0002
  65   2.0000      -0.724262       -19.7082
  66   2.0000      -0.717550       -19.5255
  67   2.0000      -0.683676       -18.6038
  68   2.0000      -0.680204       -18.5093
  69   2.0000      -0.670607       -18.2481
  70   2.0000      -0.667240       -18.1565
  71   2.0000      -0.660781       -17.9808
  72   2.0000      -0.647569       -17.6212
  73   2.0000      -0.640198       -17.4207
  74   2.0000      -0.626346       -17.0437
  75   2.0000      -0.618021       -16.8172
  76   2.0000      -0.606078       -16.4922
  77   2.0000      -0.600050       -16.3282
  78   2.0000      -0.591141       -16.0858
  79   2.0000      -0.585837       -15.9414
  80   2.0000      -0.575767       -15.6674
  81   2.0000      -0.569646       -15.5009
  82   2.0000      -0.557262       -15.1639
  83   2.0000      -0.554849       -15.0982
  84   2.0000      -0.546386       -14.8679
  85   2.0000      -0.540971       -14.7206
  86   2.0000      -0.537766       -14.6333
  87   2.0000      -0.525724       -14.3057
  88   2.0000      -0.522685       -14.2230
  89   2.0000      -0.519469       -14.1355
  90   2.0000      -0.513664       -13.9775
  91   2.0000      -0.508207       -13.8290
  92   2.0000      -0.505292       -13.7497
  93   2.0000      -0.500513       -13.6197
  94   2.0000      -0.498765       -13.5721
  95   2.0000      -0.494553       -13.4575
  96   2.0000      -0.488183       -13.2841
  97   2.0000      -0.486474       -13.2376
  98   2.0000      -0.480328       -13.0704
  99   2.0000      -0.476579       -12.9684
 100   2.0000      -0.470874       -12.8131
 101   2.0000      -0.468235       -12.7413
 102   2.0000      -0.459615       -12.5068
 103   2.0000      -0.458404       -12.4738
 104   2.0000      -0.454095       -12.3566
 105   2.0000      -0.453545       -12.3416
 106   2.0000      -0.448461       -12.2032
 107   2.0000      -0.436072       -11.8661
 108   2.0000      -0.431568       -11.7436
 109   2.0000      -0.425304       -11.5731
 110   2.0000      -0.417322       -11.3559
 111   2.0000      -0.387905       -10.5554
 112   2.0000      -0.371193       -10.1007
 113   2.0000      -0.360636        -9.8134
 114   2.0000      -0.352673        -9.5967
 115   2.0000      -0.343184        -9.3385
 116   2.0000      -0.341523        -9.2933
 117   2.0000      -0.312536        -8.5045
 118   2.0000      -0.308845        -8.4041
 119   2.0000      -0.298459        -8.1215
 120   2.0000      -0.281511        -7.6603
 121   0.0000      -0.045580        -1.2403
 122   0.0000      -0.000505        -0.0137
 123   0.0000       0.027124         0.7381
 124   0.0000       0.038960         1.0602
 125   0.0000       0.050268         1.3679

MULLIKEN ATOMIC CHARGES
-----------------------
   0 C :   -0.071892
   1 C :   -0.288663
   2 C :    0.216519
   3 C :    0.192142
   4 C :   -0.262661
   5 C :   -0.064673
   6 N :   -0.316021
   7 C :    0.191534
   8 C :    0.184373
   9 N :   -0.244488
  10 C :   -0.258979
  11 C :   -0.084019
  12 C :   -0.163820
  13 C :   -0.008008
  14 H :    0.136711
  15 H :    0.131000
  16 H :    0.131375
  17 H :    0.134933
  18 H :    0.135983
  19 H :    0.134092
  20 S :    0.068400
  21 C :    0.108869
  22 C :   -0.465038
  23 C :    0.101404
  24 C :   -0.250374
  25 C :    0.065953
  26 C :   -0.282492
  27 C :    0.125367
  28 C :   -0.209581
  29 S :    0.060169
  30 H :    0.146543
  31 H :    0.198868
  32 H :    0.174807
  33 H :    0.171998
  34 C :    0.088960
  35 C :    0.171601
  36 C :    0.125223
  37 C :    0.175774
  38 C :   -0.259483
  39 C :   -0.216141
  40 O :   -0.417901
  41 O :   -0.478218
  42 O :   -0.476396
  43 H :    0.137657
  44 H :    0.342926
  45 H :    0.349473
  46 H :    0.354376
  47 H :    0.133071
  48 H :    0.128750
Sum of atomic charges:   -0.0000000

LOEWDIN ATOMIC CHARGES
----------------------
   0 C :   -0.130872
   1 C :   -0.099776
   2 C :   -0.166433
   3 C :   -0.166879
   4 C :   -0.096831
   5 C :   -0.131139
   6 N :    0.205990
   7 C :   -0.122755
   8 C :   -0.164366
   9 N :    0.201777
  10 C :   -0.099837
  11 C :   -0.131242
  12 C :   -0.092590
  13 C :   -0.066108
  14 H :    0.152108
  15 H :    0.149533
  16 H :    0.153374
  17 H :    0.148562
  18 H :    0.152873
  19 H :    0.148562
  20 S :    0.716139
  21 C :   -0.354489
  22 C :   -0.156366
  23 C :   -0.178286
  24 C :   -0.347155
  25 C :   -0.359601
  26 C :   -0.122399
  27 C :   -0.162535
  28 C :   -0.329877
  29 S :    0.712113
  30 H :    0.146572
  31 H :    0.149733
  32 H :    0.137513
  33 H :    0.135344
  34 C :   -0.116093
  35 C :   -0.213761
  36 C :   -0.232805
  37 C :   -0.249584
  38 C :   -0.131935
  39 C :   -0.111145
  40 O :    0.083671
  41 O :    0.039573
  42 O :    0.054874
  43 H :    0.150544
  44 H :    0.199146
  45 H :    0.200109
  46 H :    0.192662
  47 H :    0.153577
  48 H :    0.150512

  Mayer bond orders larger than 0.1
B(  0-C ,  1-C ) :   1.6141 B(  0-C ,  5-C ) :   1.1949 B(  0-C , 19-H ) :   0.9800
B(  1-C ,  2-C ) :   1.1759 B(  1-C , 18-H ) :   0.9745 B(  2-C ,  3-C ) :   1.1616
B(  2-C ,  6-N ) :   1.4065 B(  3-C ,  4-C ) :   1.1971 B(  3-C ,  9-N ) :   1.4064
B(  4-C ,  5-C ) :   1.6241 B(  4-C , 47-H ) :   0.9766 B(  5-C , 17-H ) :   0.9752
B(  6-N ,  7-C ) :   1.3562 B(  7-C ,  8-C ) :   1.1954 B(  7-C , 13-C ) :   1.1235
B(  8-C ,  9-N ) :   1.4273 B(  8-C , 10-C ) :   1.1931 B( 10-C , 11-C ) :   1.5976
B( 10-C , 16-H ) :   0.9820 B( 11-C , 12-C ) :   1.2343 B( 11-C , 15-H ) :   0.9854
B( 12-C , 13-C ) :   1.5641 B( 12-C , 14-H ) :   0.9575 B( 13-C , 27-C ) :   0.9032
B( 20-S , 21-C ) :   1.3033 B( 20-S , 24-C ) :   1.2701 B( 21-C , 22-C ) :   1.5820
B( 21-C , 25-C ) :   0.9143 B( 22-C , 23-C ) :   1.2507 B( 22-C , 31-H ) :   0.9052
B( 23-C , 24-C ) :   1.6815 B( 23-C , 34-C ) :   0.8263 B( 24-C , 33-H ) :   0.9312
B( 25-C , 26-C ) :   1.6599 B( 25-C , 29-S ) :   1.2716 B( 26-C , 27-C ) :   1.2623
B( 26-C , 30-H ) :   0.8864 B( 27-C , 28-C ) :   1.6318 B( 28-C , 29-S ) :   1.2992
B( 28-C , 32-H ) :   0.9193 B( 34-C , 35-C ) :   1.2763 B( 34-C , 39-C ) :   1.3658
B( 35-C , 36-C ) :   1.3635 B( 35-C , 42-O ) :   1.0385 B( 36-C , 37-C ) :   1.3424
B( 36-C , 41-O ) :   1.0622 B( 37-C , 38-C ) :   1.4191 B( 37-C , 40-O ) :   1.1724
B( 38-C , 39-C ) :   1.4788 B( 38-C , 48-H ) :   0.9830 B( 39-C , 43-H ) :   0.9642
B( 40-O , 44-H ) :   0.8615 B( 41-O , 45-H ) :   0.8589 B( 42-O , 46-H ) :   0.8537

Dispersion correction           -0.022645166
FINAL SINGLE POINT ENERGY     -2132.073254381853

DIPOLE MOMENT
-------------
                                X             Y             Z
Electronic contribution:      2.00242       7.57297       1.12576
Nuclear contribution   :     -3.34413      -7.55287      -1.42751
                        -----------------------------------------
Total Dipole Moment    :     -1.34171       0.02009      -0.30175
                        -----------------------------------------
Magnitude (a.u.)       :      1.37537
Magnitude (Debye)      :      3.49591

                             ****ORCA TERMINATED NORMALLY****
TOTAL RUN TIME: 0 days 0 hours 12 minutes 51 seconds 481 msec
