                         Program Version 4.0.0 -  RELEASE  -
|  1> #
|  2> !wB97X-D3 def2-TZVP def2/J RIJCOSX Grid5 FinalGrid6 TightSCF
|  3> %pal
|  4>  nprocs 24
|  5> end
|  6> %tddft
|  7>   Mode sTDDFT
|  8>   nroots 2
|  9>   Ethresh 10.0
| 10>   maxcore 5000
| 11>   triplets true
| 12> end
| 13> * xyz 0 1
| 14> C -6.38370213 2.93682063 -1.25384431
| 15> C -5.16395518 2.33790835 -1.05616590
| 16> C -5.08286708 1.05275342 -0.42923230
| 17> C -6.29959125 0.40581572 -0.00159569
| 18> C -7.55079397 1.06627959 -0.22818713
| 19> C -7.58512432 2.29562465 -0.83848122
| 20> N -3.87224087 0.46892432 -0.24731225
| 21> C -3.84243638 -0.74800873 0.34418084
| 22> C -5.06266047 -1.37941607 0.80097798
| 23> N -6.27440678 -0.79858246 0.61899114
| 24> C -4.98988333 -2.64452164 1.46712729
| 25> C -3.77141552 -3.24393855 1.67314272
| 26> C -2.57315593 -2.63491789 1.22075044
| 27> C -2.57505341 -1.41886202 0.55534803
| 28> H -1.63260283 -3.15495470 1.38368449
| 29> H -3.71324154 -4.20378938 2.18004650
| 30> H -5.90839440 -3.11701706 1.80452165
| 31> H -8.53579758 2.79437043 -1.00955448
| 32> H -4.24711155 2.82755147 -1.37524365
| 33> H -6.44304178 3.91106548 -1.73240458
| 34> S 2.95980492 -1.43785009 1.90429944
| 35> C 2.42381758 -0.52036225 0.49487210
| 36> C 3.49735308 0.09788067 -0.11037175
| 37> C 4.75301740 -0.15119752 0.53927085
| 38> C 4.61549120 -0.96958196 1.64851200
| 39> C 1.03126974 -0.47989830 0.10312947
| 40> C -0.04111236 -1.09821604 0.71350882
| 41> C -1.30294324 -0.83984443 0.07885656
| 42> C -1.16583005 -0.02421755 -1.03068659
| 43> S 0.49339102 0.43324949 -1.30362797
| 44> H 0.06705967 -1.70002148 1.61065153
| 45> H 3.40777748 0.71744620 -0.99640520
| 46> H -1.95367291 0.29642719 -1.69935077
| 47> H 5.40667942 -1.30512170 2.30736457
| 48> N 7.62853912 -0.54948539 1.78768069
| 49> C 7.28895892 0.16987904 0.70128600
| 50> C 8.48217630 0.75236371 0.17493704
| 51> N 9.51216072 0.37247491 0.95338169
| 52> O 8.96732575 -0.40976149 1.91476580
| 53> C 8.41093923 1.57158538 -0.98644524
| 54> C 7.15423479 1.74328570 -1.52885338
| 55> N 5.99728762 1.18883577 -1.03302760
| 56> C 6.02069352 0.41248403 0.05712751
| 57> H 7.03121003 2.36240108 -2.42320202
| 58> H -8.46911786 0.57907748 0.08983876
| 59> H 9.29146522 2.03486199 -1.42146186
| 60> *
| 61> $new_job
| 62> #
| 63> !wB97X-D3 def2-TZVP def2/J RIJCOSX Grid5 FinalGrid6 TightSCF
| 64> %pal
| 65>  nprocs 24
| 66> end
| 67> %elprop
| 68>    dipole     true
| 69>    quadrupole true
| 70> end
| 71> %tddft
| 72>   Mode sTDDFT
| 73>   nroots 2
| 74>   Ethresh 10.0
| 75>   maxcore 5000
| 76> end
| 77> * xyz 0 1
| 78> C -6.38370213 2.93682063 -1.25384431
| 79> C -5.16395518 2.33790835 -1.05616590
| 80> C -5.08286708 1.05275342 -0.42923230
| 81> C -6.29959125 0.40581572 -0.00159569
| 82> C -7.55079397 1.06627959 -0.22818713
| 83> C -7.58512432 2.29562465 -0.83848122
| 84> N -3.87224087 0.46892432 -0.24731225
| 85> C -3.84243638 -0.74800873 0.34418084
| 86> C -5.06266047 -1.37941607 0.80097798
| 87> N -6.27440678 -0.79858246 0.61899114
| 88> C -4.98988333 -2.64452164 1.46712729
| 89> C -3.77141552 -3.24393855 1.67314272
| 90> C -2.57315593 -2.63491789 1.22075044
| 91> C -2.57505341 -1.41886202 0.55534803
| 92> H -1.63260283 -3.15495470 1.38368449
| 93> H -3.71324154 -4.20378938 2.18004650
| 94> H -5.90839440 -3.11701706 1.80452165
| 95> H -8.53579758 2.79437043 -1.00955448
| 96> H -4.24711155 2.82755147 -1.37524365
| 97> H -6.44304178 3.91106548 -1.73240458
| 98> S 2.95980492 -1.43785009 1.90429944
| 99> C 2.42381758 -0.52036225 0.49487210
|100> C 3.49735308 0.09788067 -0.11037175
|101> C 4.75301740 -0.15119752 0.53927085
|102> C 4.61549120 -0.96958196 1.64851200
|103> C 1.03126974 -0.47989830 0.10312947
|104> C -0.04111236 -1.09821604 0.71350882
|105> C -1.30294324 -0.83984443 0.07885656
|106> C -1.16583005 -0.02421755 -1.03068659
|107> S 0.49339102 0.43324949 -1.30362797
|108> H 0.06705967 -1.70002148 1.61065153
|109> H 3.40777748 0.71744620 -0.99640520
|110> H -1.95367291 0.29642719 -1.69935077
|111> H 5.40667942 -1.30512170 2.30736457
|112> N 7.62853912 -0.54948539 1.78768069
|113> C 7.28895892 0.16987904 0.70128600
|114> C 8.48217630 0.75236371 0.17493704
|115> N 9.51216072 0.37247491 0.95338169
|116> O 8.96732575 -0.40976149 1.91476580
|117> C 8.41093923 1.57158538 -0.98644524
|118> C 7.15423479 1.74328570 -1.52885338
|119> N 5.99728762 1.18883577 -1.03302760
|120> C 6.02069352 0.41248403 0.05712751
|121> H 7.03121003 2.36240108 -2.42320202
|122> H -8.46911786 0.57907748 0.08983876
|123> H 9.29146522 2.03486199 -1.42146186
|124> *
|125>
|126>                          ****END OF INPUT****
 Total Charge           Charge          ....    0
 Multiplicity           Mult            ....    1
 Number of Electrons    NEL             ....  238
Dispersion correction           -0.020807847
FINAL SINGLE POINT ENERGY     -2105.845835543542

CARTESIAN COORDINATES (ANGSTROEM)
---------------------------------
  C     -6.383702    2.936821   -1.253844
  C     -5.163955    2.337908   -1.056166
  C     -5.082867    1.052753   -0.429232
  C     -6.299591    0.405816   -0.001596
  C     -7.550794    1.066280   -0.228187
  C     -7.585124    2.295625   -0.838481
  N     -3.872241    0.468924   -0.247312
  C     -3.842436   -0.748009    0.344181
  C     -5.062660   -1.379416    0.800978
  N     -6.274407   -0.798582    0.618991
  C     -4.989883   -2.644522    1.467127
  C     -3.771416   -3.243939    1.673143
  C     -2.573156   -2.634918    1.220750
  C     -2.575053   -1.418862    0.555348
  H     -1.632603   -3.154955    1.383684
  H     -3.713242   -4.203789    2.180046
  H     -5.908394   -3.117017    1.804522
  H     -8.535798    2.794370   -1.009554
  H     -4.247112    2.827551   -1.375244
  H     -6.443042    3.911065   -1.732405
  S      2.959805   -1.437850    1.904299
  C      2.423818   -0.520362    0.494872
  C      3.497353    0.097881   -0.110372
  C      4.753017   -0.151198    0.539271
  C      4.615491   -0.969582    1.648512
  C      1.031270   -0.479898    0.103129
  C     -0.041112   -1.098216    0.713509
  C     -1.302943   -0.839844    0.078857
  C     -1.165830   -0.024218   -1.030687
  S      0.493391    0.433249   -1.303628
  H      0.067060   -1.700021    1.610652
  H      3.407777    0.717446   -0.996405
  H     -1.953673    0.296427   -1.699351
  H      5.406679   -1.305122    2.307365
  N      7.628539   -0.549485    1.787681
  C      7.288959    0.169879    0.701286
  C      8.482176    0.752364    0.174937
  N      9.512161    0.372475    0.953382
  O      8.967326   -0.409761    1.914766
  C      8.410939    1.571585   -0.986445
  C      7.154235    1.743286   -1.528853
  N      5.997288    1.188836   -1.033028
  C      6.020694    0.412484    0.057128
  H      7.031210    2.362401   -2.423202
  H     -8.469118    0.579077    0.089839
  H      9.291465    2.034862   -1.421462

 Multiplicity           Mult            ....    1
 Number of Electrons    NEL             ....  238
 Basis Dimension        Dim             .... 1113

ORBITAL ENERGIES
----------------

  NO   OCC          E(Eh)            E(eV)
   0   2.0000     -88.995394     -2421.6878
   1   2.0000     -88.985639     -2421.4223
   2   2.0000     -19.392815      -527.7053
   3   2.0000     -14.522497      -395.1772
   4   2.0000     -14.514024      -394.9467
   5   2.0000     -14.450980      -393.2312
   6   2.0000     -14.447713      -393.1423
   7   2.0000     -14.447589      -393.1389
   8   2.0000     -10.376247      -282.3520
   9   2.0000     -10.355545      -281.7887
  10   2.0000     -10.355120      -281.7771
  11   2.0000     -10.344578      -281.4903
  12   2.0000     -10.343228      -281.4535
  13   2.0000     -10.340394      -281.3764
  14   2.0000     -10.340205      -281.3713
  15   2.0000     -10.339345      -281.3479
  16   2.0000     -10.338058      -281.3129
  17   2.0000     -10.332833      -281.1707
  18   2.0000     -10.330717      -281.1131
  19   2.0000     -10.319465      -280.8069
  20   2.0000     -10.317137      -280.7436
  21   2.0000     -10.315385      -280.6959
  22   2.0000     -10.315059      -280.6870
  23   2.0000     -10.304725      -280.4058
  24   2.0000     -10.304136      -280.3898
  25   2.0000     -10.303602      -280.3753
  26   2.0000     -10.303131      -280.3624
  27   2.0000     -10.302626      -280.3487
  28   2.0000     -10.300381      -280.2876
  29   2.0000     -10.299796      -280.2717
  30   2.0000     -10.297506      -280.2094
  31   2.0000     -10.297351      -280.2052
  32   2.0000     -10.296260      -280.1755
  33   2.0000      -8.091679      -220.1858
  34   2.0000      -8.081981      -219.9219
  35   2.0000      -6.044965      -164.4919
  36   2.0000      -6.040761      -164.3775
  37   2.0000      -6.038846      -164.3253
  38   2.0000      -6.035311      -164.2292
  39   2.0000      -6.031077      -164.1139
  40   2.0000      -6.029090      -164.0599
  41   2.0000      -1.338075       -36.4109
  42   2.0000      -1.102812       -30.0090
  43   2.0000      -1.089320       -29.6419
  44   2.0000      -1.045761       -28.4566
  45   2.0000      -1.032984       -28.1089
  46   2.0000      -1.021158       -27.7871
  47   2.0000      -1.005045       -27.3487
  48   2.0000      -1.002648       -27.2834
  49   2.0000      -0.989625       -26.9291
  50   2.0000      -0.963437       -26.2164
  51   2.0000      -0.928398       -25.2630
  52   2.0000      -0.908342       -24.7172
  53   2.0000      -0.884980       -24.0815
  54   2.0000      -0.882343       -24.0098
  55   2.0000      -0.873393       -23.7662
  56   2.0000      -0.864793       -23.5322
  57   2.0000      -0.846988       -23.0477
  58   2.0000      -0.830328       -22.5944
  59   2.0000      -0.813287       -22.1307
  60   2.0000      -0.802315       -21.8321
  61   2.0000      -0.784981       -21.3604
  62   2.0000      -0.764888       -20.8137
  63   2.0000      -0.741188       -20.1688
  64   2.0000      -0.733814       -19.9681
  65   2.0000      -0.723105       -19.6767
  66   2.0000      -0.714788       -19.4504
  67   2.0000      -0.687827       -18.7167
  68   2.0000      -0.678826       -18.4718
  69   2.0000      -0.670977       -18.2582
  70   2.0000      -0.664136       -18.0720
  71   2.0000      -0.654176       -17.8010
  72   2.0000      -0.645052       -17.5528
  73   2.0000      -0.636161       -17.3108
  74   2.0000      -0.633335       -17.2339
  75   2.0000      -0.625440       -17.0191
  76   2.0000      -0.604241       -16.4422
  77   2.0000      -0.597431       -16.2569
  78   2.0000      -0.589058       -16.0291
  79   2.0000      -0.587237       -15.9795
  80   2.0000      -0.575716       -15.6660
  81   2.0000      -0.570082       -15.5127
  82   2.0000      -0.562318       -15.3015
  83   2.0000      -0.555529       -15.1167
  84   2.0000      -0.544767       -14.8239
  85   2.0000      -0.539423       -14.6784
  86   2.0000      -0.538558       -14.6549
  87   2.0000      -0.530268       -14.4293
  88   2.0000      -0.521649       -14.1948
  89   2.0000      -0.515239       -14.0204
  90   2.0000      -0.508330       -13.8324
  91   2.0000      -0.503741       -13.7075
  92   2.0000      -0.498773       -13.5723
  93   2.0000      -0.494791       -13.4639
  94   2.0000      -0.489183       -13.3114
  95   2.0000      -0.486349       -13.2342
  96   2.0000      -0.481791       -13.1102
  97   2.0000      -0.478869       -13.0307
  98   2.0000      -0.466539       -12.6952
  99   2.0000      -0.458322       -12.4716
 100   2.0000      -0.455327       -12.3901
 101   2.0000      -0.452081       -12.3017
 102   2.0000      -0.447918       -12.1885
 103   2.0000      -0.446551       -12.1513
 104   2.0000      -0.434483       -11.8229
 105   2.0000      -0.432372       -11.7654
 106   2.0000      -0.430635       -11.7182
 107   2.0000      -0.416158       -11.3242
 108   2.0000      -0.414820       -11.2878
 109   2.0000      -0.390505       -10.6262
 110   2.0000      -0.383949       -10.4478
 111   2.0000      -0.377176       -10.2635
 112   2.0000      -0.365207        -9.9378
 113   2.0000      -0.351189        -9.5563
 114   2.0000      -0.342477        -9.3193
 115   2.0000      -0.340576        -9.2675
 116   2.0000      -0.328706        -8.9445
 117   2.0000      -0.307202        -8.3594
 118   2.0000      -0.285411        -7.7664
 119   0.0000      -0.048275        -1.3136
 120   0.0000      -0.044077        -1.1994
 121   0.0000       0.005495         0.1495
 122   0.0000       0.028632         0.7791
 123   0.0000       0.037518         1.0209

MULLIKEN ATOMIC CHARGES
-----------------------
   0 C :   -0.066520
   1 C :   -0.283860
   2 C :    0.207406
   3 C :    0.195983
   4 C :   -0.260270
   5 C :   -0.071082
   6 N :   -0.317822
   7 C :    0.187177
   8 C :    0.183703
   9 N :   -0.244266
  10 C :   -0.260573
  11 C :   -0.079126
  12 C :   -0.167531
  13 C :   -0.014420
  14 H :    0.134505
  15 H :    0.129319
  16 H :    0.130998
  17 H :    0.133723
  18 H :    0.136476
  19 H :    0.133552
  20 S :    0.061810
  21 C :    0.094456
  22 C :   -0.266794
  23 C :    0.025150
  24 C :   -0.193721
  25 C :    0.011246
  26 C :   -0.255005
  27 C :    0.121131
  28 C :   -0.202306
  29 S :    0.057503
  30 H :    0.159302
  31 H :    0.166874
  32 H :    0.172898
  33 H :    0.199156
  34 N :   -0.109459
  35 C :    0.110505
  36 C :    0.015735
  37 N :   -0.075973
  38 O :   -0.001697
  39 C :   -0.158659
  40 C :   -0.029585
  41 N :   -0.302181
  42 C :    0.159348
  43 H :    0.143995
  44 H :    0.133729
  45 H :    0.155169
Sum of atomic charges:   -0.0000000

LOEWDIN ATOMIC CHARGES
----------------------
   0 C :   -0.131153
   1 C :   -0.099789
   2 C :   -0.166622
   3 C :   -0.167096
   4 C :   -0.097062
   5 C :   -0.131637
   6 N :    0.206097
   7 C :   -0.122476
   8 C :   -0.164384
   9 N :    0.201546
  10 C :   -0.100372
  11 C :   -0.131011
  12 C :   -0.092176
  13 C :   -0.065884
  14 H :    0.152350
  15 H :    0.149362
  16 H :    0.153188
  17 H :    0.148427
  18 H :    0.152816
  19 H :    0.148350
  20 S :    0.729027
  21 C :   -0.345798
  22 C :   -0.117542
  23 C :   -0.176637
  24 C :   -0.324355
  25 C :   -0.354983
  26 C :   -0.133206
  27 C :   -0.163170
  28 C :   -0.330092
  29 S :    0.720071
  30 H :    0.145593
  31 H :    0.153123
  32 H :    0.137345
  33 H :    0.140233
  34 N :    0.043532
  35 C :   -0.189106
  36 C :   -0.232595
  37 N :    0.043063
  38 O :    0.227488
  39 C :   -0.119309
  40 C :   -0.183871
  41 N :    0.156017
  42 C :   -0.121810
  43 H :    0.145928
  44 H :    0.153507
  45 H :    0.155073

  Mayer bond orders larger than 0.1
B(  0-C ,  1-C ) :   1.6150 B(  0-C ,  5-C ) :   1.1910 B(  0-C , 19-H ) :   0.9784
B(  1-C ,  2-C ) :   1.1818 B(  1-C , 18-H ) :   0.9726 B(  2-C ,  3-C ) :   1.1643
B(  2-C ,  6-N ) :   1.4040 B(  3-C ,  4-C ) :   1.1960 B(  3-C ,  9-N ) :   1.4058
B(  4-C ,  5-C ) :   1.6214 B(  4-C , 44-H ) :   0.9752 B(  5-C , 17-H ) :   0.9801
B(  6-N ,  7-C ) :   1.3578 B(  7-C ,  8-C ) :   1.1938 B(  7-C , 13-C ) :   1.1316
B(  8-C ,  9-N ) :   1.4293 B(  8-C , 10-C ) :   1.1947 B( 10-C , 11-C ) :   1.5936
B( 10-C , 16-H ) :   0.9818 B( 11-C , 12-C ) :   1.2313 B( 11-C , 15-H ) :   0.9872
B( 12-C , 13-C ) :   1.5760 B( 12-C , 14-H ) :   0.9586 B( 13-C , 27-C ) :   0.8870
B( 20-S , 21-C ) :   1.2175 B( 20-S , 24-C ) :   1.3255 B( 21-C , 22-C ) :   1.5752
B( 21-C , 25-C ) :   0.9563 B( 22-C , 23-C ) :   1.2649 B( 22-C , 31-H ) :   0.9084
B( 23-C , 24-C ) :   1.6171 B( 23-C , 42-C ) :   0.9990 B( 24-C , 33-H ) :   0.9090
B( 25-C , 26-C ) :   1.5979 B( 25-C , 29-S ) :   1.2763 B( 26-C , 27-C ) :   1.2679
B( 26-C , 30-H ) :   0.8817 B( 27-C , 28-C ) :   1.6443 B( 28-C , 29-S ) :   1.2980
B( 28-C , 32-H ) :   0.9207 B( 34-N , 35-C ) :   1.5003 B( 34-N , 37-N ) :   0.1998
B( 34-N , 38-O ) :   1.0817 B( 35-C , 36-C ) :   1.1733 B( 35-C , 42-C ) :   1.1271
B( 36-C , 37-N ) :   1.6120 B( 36-C , 39-C ) :   1.1764 B( 37-N , 38-O ) :   1.0542
B( 39-C , 40-C ) :   1.6097 B( 39-C , 45-H ) :   0.9546 B( 40-C , 41-N ) :   1.3072
B( 40-C , 43-H ) :   0.9789 B( 41-N , 42-C ) :   1.6276

Dispersion correction           -0.020807847
FINAL SINGLE POINT ENERGY     -2105.845835528316

DIPOLE MOMENT
-------------
                                X             Y             Z
Electronic contribution:     21.76772      -2.67200       3.61173
Nuclear contribution   :    -22.60376       3.06981      -4.20384
                        -----------------------------------------
Total Dipole Moment    :     -0.83604       0.39782      -0.59211
                        -----------------------------------------
Magnitude (a.u.)       :      1.09901
Magnitude (Debye)      :      2.79345

                             ****ORCA TERMINATED NORMALLY****
TOTAL RUN TIME: 0 days 0 hours 12 minutes 53 seconds 706 msec
