                         Program Version 4.0.0 -  RELEASE  -
|  1> #
|  2> !wB97X-D3 def2-TZVP def2/J RIJCOSX Grid5 FinalGrid6 TightSCF
|  3> %pal
|  4>  nprocs 24
|  5> end
|  6> %tddft
|  7>   Mode sTDDFT
|  8>   nroots 2
|  9>   Ethresh 10.0
| 10>   maxcore 5000
| 11>   triplets true
| 12> end
| 13> * xyz 0 1
| 14> C 5.08271272 1.38868983 -2.56757997
| 15> C 4.53153534 0.74068515 -1.46516155
| 16> C 5.38369536 0.06599431 -0.57026463
| 17> C 6.78370956 0.08330789 -0.82585550
| 18> C 7.34106944 0.72955284 -1.93983391
| 19> C 6.46814918 1.38119022 -2.80731400
| 20> C 5.19734078 -0.67799177 0.66597096
| 21> C 6.50373182 -1.05369893 1.09913018
| 22> N 7.43597779 -0.60323483 0.18327688
| 23> C 6.74569216 -1.75123896 2.29167949
| 24> C 5.64329731 -2.06782940 3.08272826
| 25> C 4.34855097 -1.71110464 2.68607023
| 26> C 4.08620326 -1.03392446 1.47945352
| 27> H 3.51140205 -1.98922935 3.32230682
| 28> H 8.43820095 -0.72600295 0.25955074
| 29> H 5.78530229 -2.60102697 4.01832915
| 30> H 3.45744085 0.75598131 -1.30520277
| 31> H 8.41371056 0.72484692 -2.11422468
| 32> H 6.86286292 1.89319927 -3.68094375
| 33> H 4.42913265 1.90992497 -3.26172046
| 34> S -2.23661725 0.11862337 -0.15044592
| 35> C -1.11912016 -0.12013842 1.20096736
| 36> N -1.71003498 -0.07440363 2.38686289
| 37> N -3.05481515 0.15820738 2.31239038
| 38> C -3.51818241 0.27322655 1.07371308
| 39> C 0.29499133 -0.35176459 1.01065601
| 40> N 0.87862115 -0.40734432 -0.17906801
| 41> N 2.22570340 -0.63611354 -0.11045247
| 42> C 2.69160704 -0.75183763 1.12367042
| 43> S 1.41584397 -0.59206652 2.35733174
| 44> C -7.57492304 1.55979723 0.46479621
| 45> C -6.98604489 0.74248130 -0.53435919
| 46> C -5.65124320 0.24820122 -0.37200357
| 47> C -4.92144450 0.63145166 0.80877361
| 48> C -5.55383797 1.41307942 1.77546730
| 49> C -6.87326800 1.87282744 1.61089312
| 50> C -5.13282392 -0.62933259 -1.36782543
| 51> C -5.87350692 -0.96140718 -2.48480819
| 52> C -7.17302523 -0.44516167 -2.67911620
| 53> C -7.71869616 0.38591816 -1.71040903
| 54> O -8.97734429 0.88004990 -1.85129490
| 55> H -7.74535181 -0.71021821 -3.56422354
| 56> H -4.99916455 1.68795518 2.66887484
| 57> H -7.32656598 2.48881072 2.38270775
| 58> H -5.45583628 -1.63529970 -3.22735205
| 59> H -4.14971381 -1.07163300 -1.24521358
| 60> H -9.37182933 0.56754061 -2.67643994
| 61> H 7.75413066 -2.02332440 2.59028685
| 62> H -8.58722567 1.92358476 0.31462546
| 63> *
| 64> $new_job
| 65> #
| 66> !wB97X-D3 def2-TZVP def2/J RIJCOSX Grid5 FinalGrid6 TightSCF
| 67> %pal
| 68>  nprocs 24
| 69> end
| 70> %elprop
| 71>    dipole     true
| 72>    quadrupole true
| 73> end
| 74> %tddft
| 75>   Mode sTDDFT
| 76>   nroots 2
| 77>   Ethresh 10.0
| 78>   maxcore 5000
| 79> end
| 80> * xyz 0 1
| 81> C 5.08271272 1.38868983 -2.56757997
| 82> C 4.53153534 0.74068515 -1.46516155
| 83> C 5.38369536 0.06599431 -0.57026463
| 84> C 6.78370956 0.08330789 -0.82585550
| 85> C 7.34106944 0.72955284 -1.93983391
| 86> C 6.46814918 1.38119022 -2.80731400
| 87> C 5.19734078 -0.67799177 0.66597096
| 88> C 6.50373182 -1.05369893 1.09913018
| 89> N 7.43597779 -0.60323483 0.18327688
| 90> C 6.74569216 -1.75123896 2.29167949
| 91> C 5.64329731 -2.06782940 3.08272826
| 92> C 4.34855097 -1.71110464 2.68607023
| 93> C 4.08620326 -1.03392446 1.47945352
| 94> H 3.51140205 -1.98922935 3.32230682
| 95> H 8.43820095 -0.72600295 0.25955074
| 96> H 5.78530229 -2.60102697 4.01832915
| 97> H 3.45744085 0.75598131 -1.30520277
| 98> H 8.41371056 0.72484692 -2.11422468
| 99> H 6.86286292 1.89319927 -3.68094375
|100> H 4.42913265 1.90992497 -3.26172046
|101> S -2.23661725 0.11862337 -0.15044592
|102> C -1.11912016 -0.12013842 1.20096736
|103> N -1.71003498 -0.07440363 2.38686289
|104> N -3.05481515 0.15820738 2.31239038
|105> C -3.51818241 0.27322655 1.07371308
|106> C 0.29499133 -0.35176459 1.01065601
|107> N 0.87862115 -0.40734432 -0.17906801
|108> N 2.22570340 -0.63611354 -0.11045247
|109> C 2.69160704 -0.75183763 1.12367042
|110> S 1.41584397 -0.59206652 2.35733174
|111> C -7.57492304 1.55979723 0.46479621
|112> C -6.98604489 0.74248130 -0.53435919
|113> C -5.65124320 0.24820122 -0.37200357
|114> C -4.92144450 0.63145166 0.80877361
|115> C -5.55383797 1.41307942 1.77546730
|116> C -6.87326800 1.87282744 1.61089312
|117> C -5.13282392 -0.62933259 -1.36782543
|118> C -5.87350692 -0.96140718 -2.48480819
|119> C -7.17302523 -0.44516167 -2.67911620
|120> C -7.71869616 0.38591816 -1.71040903
|121> O -8.97734429 0.88004990 -1.85129490
|122> H -7.74535181 -0.71021821 -3.56422354
|123> H -4.99916455 1.68795518 2.66887484
|124> H -7.32656598 2.48881072 2.38270775
|125> H -5.45583628 -1.63529970 -3.22735205
|126> H -4.14971381 -1.07163300 -1.24521358
|127> H -9.37182933 0.56754061 -2.67643994
|128> H 7.75413066 -2.02332440 2.59028685
|129> H -8.58722567 1.92358476 0.31462546
|130> *
|131>
|132>                          ****END OF INPUT****
 Total Charge           Charge          ....    0
 Multiplicity           Mult            ....    1
 Number of Electrons    NEL             ....  246
Dispersion correction           -0.022373971
FINAL SINGLE POINT ENERGY     -2145.253095564583

CARTESIAN COORDINATES (ANGSTROEM)
---------------------------------
  C      5.082713    1.388690   -2.567580
  C      4.531535    0.740685   -1.465162
  C      5.383695    0.065994   -0.570265
  C      6.783710    0.083308   -0.825855
  C      7.341069    0.729553   -1.939834
  C      6.468149    1.381190   -2.807314
  C      5.197341   -0.677992    0.665971
  C      6.503732   -1.053699    1.099130
  N      7.435978   -0.603235    0.183277
  C      6.745692   -1.751239    2.291679
  C      5.643297   -2.067829    3.082728
  C      4.348551   -1.711105    2.686070
  C      4.086203   -1.033924    1.479454
  H      3.511402   -1.989229    3.322307
  H      8.438201   -0.726003    0.259551
  H      5.785302   -2.601027    4.018329
  H      3.457441    0.755981   -1.305203
  H      8.413711    0.724847   -2.114225
  H      6.862863    1.893199   -3.680944
  H      4.429133    1.909925   -3.261720
  S     -2.236617    0.118623   -0.150446
  C     -1.119120   -0.120138    1.200967
  N     -1.710035   -0.074404    2.386863
  N     -3.054815    0.158207    2.312390
  C     -3.518182    0.273227    1.073713
  C      0.294991   -0.351765    1.010656
  N      0.878621   -0.407344   -0.179068
  N      2.225703   -0.636114   -0.110452
  C      2.691607   -0.751838    1.123670
  S      1.415844   -0.592067    2.357332
  C     -7.574923    1.559797    0.464796
  C     -6.986045    0.742481   -0.534359
  C     -5.651243    0.248201   -0.372004
  C     -4.921444    0.631452    0.808774
  C     -5.553838    1.413079    1.775467
  C     -6.873268    1.872827    1.610893
  C     -5.132824   -0.629333   -1.367825
  C     -5.873507   -0.961407   -2.484808
  C     -7.173025   -0.445162   -2.679116
  C     -7.718696    0.385918   -1.710409
  O     -8.977344    0.880050   -1.851295
  H     -7.745352   -0.710218   -3.564224
  H     -4.999165    1.687955    2.668875
  H     -7.326566    2.488811    2.382708
  H     -5.455836   -1.635300   -3.227352
  H     -4.149714   -1.071633   -1.245214
  H     -9.371829    0.567541   -2.676440
  H      7.754131   -2.023324    2.590287
  H     -8.587226    1.923585    0.314625

 Multiplicity           Mult            ....    1
 Number of Electrons    NEL             ....  246
 Basis Dimension        Dim             .... 1156

ORBITAL ENERGIES
----------------

  NO   OCC          E(Eh)            E(eV)
   0   2.0000     -89.007629     -2422.0207
   1   2.0000     -89.006452     -2421.9887
   2   2.0000     -19.279477      -524.6212
   3   2.0000     -14.471728      -393.7957
   4   2.0000     -14.471373      -393.7861
   5   2.0000     -14.470727      -393.7685
   6   2.0000     -14.463275      -393.5657
   7   2.0000     -14.462733      -393.5510
   8   2.0000     -10.378014      -282.4001
   9   2.0000     -10.376592      -282.3614
  10   2.0000     -10.373874      -282.2875
  11   2.0000     -10.373752      -282.2841
  12   2.0000     -10.363571      -282.0071
  13   2.0000     -10.334766      -281.2233
  14   2.0000     -10.326066      -280.9865
  15   2.0000     -10.320631      -280.8386
  16   2.0000     -10.318251      -280.7739
  17   2.0000     -10.316870      -280.7363
  18   2.0000     -10.307154      -280.4719
  19   2.0000     -10.305031      -280.4141
  20   2.0000     -10.299886      -280.2742
  21   2.0000     -10.299370      -280.2601
  22   2.0000     -10.298749      -280.2432
  23   2.0000     -10.298655      -280.2406
  24   2.0000     -10.296006      -280.1686
  25   2.0000     -10.294772      -280.1350
  26   2.0000     -10.292789      -280.0810
  27   2.0000     -10.292096      -280.0622
  28   2.0000     -10.288951      -279.9766
  29   2.0000     -10.287201      -279.9290
  30   2.0000     -10.284450      -279.8541
  31   2.0000     -10.283495      -279.8281
  32   2.0000     -10.277410      -279.6626
  33   2.0000     -10.270831      -279.4835
  34   2.0000      -8.103806      -220.5158
  35   2.0000      -8.102701      -220.4857
  36   2.0000      -6.056910      -164.8169
  37   2.0000      -6.055792      -164.7865
  38   2.0000      -6.052948      -164.7091
  39   2.0000      -6.051875      -164.6799
  40   2.0000      -6.050904      -164.6535
  41   2.0000      -6.049790      -164.6232
  42   2.0000      -1.197364       -32.5819
  43   2.0000      -1.155058       -31.4307
  44   2.0000      -1.146981       -31.2109
  45   2.0000      -1.107954       -30.1490
  46   2.0000      -1.010604       -27.4999
  47   2.0000      -0.993248       -27.0277
  48   2.0000      -0.978483       -26.6259
  49   2.0000      -0.964409       -26.2429
  50   2.0000      -0.957096       -26.0439
  51   2.0000      -0.943727       -25.6801
  52   2.0000      -0.934162       -25.4198
  53   2.0000      -0.914247       -24.8779
  54   2.0000      -0.901647       -24.5351
  55   2.0000      -0.891762       -24.2661
  56   2.0000      -0.874917       -23.8077
  57   2.0000      -0.873720       -23.7751
  58   2.0000      -0.846888       -23.0450
  59   2.0000      -0.845906       -23.0183
  60   2.0000      -0.841213       -22.8906
  61   2.0000      -0.784958       -21.3598
  62   2.0000      -0.771473       -20.9929
  63   2.0000      -0.760736       -20.7007
  64   2.0000      -0.751622       -20.4527
  65   2.0000      -0.735293       -20.0083
  66   2.0000      -0.727430       -19.7944
  67   2.0000      -0.723624       -19.6908
  68   2.0000      -0.713703       -19.4209
  69   2.0000      -0.698817       -19.0158
  70   2.0000      -0.673388       -18.3238
  71   2.0000      -0.661104       -17.9896
  72   2.0000      -0.658872       -17.9288
  73   2.0000      -0.643153       -17.5011
  74   2.0000      -0.629798       -17.1377
  75   2.0000      -0.624185       -16.9849
  76   2.0000      -0.619014       -16.8442
  77   2.0000      -0.616241       -16.7688
  78   2.0000      -0.601108       -16.3570
  79   2.0000      -0.580357       -15.7923
  80   2.0000      -0.574228       -15.6255
  81   2.0000      -0.572398       -15.5757
  82   2.0000      -0.564413       -15.3585
  83   2.0000      -0.562652       -15.3105
  84   2.0000      -0.553738       -15.0680
  85   2.0000      -0.549362       -14.9489
  86   2.0000      -0.545918       -14.8552
  87   2.0000      -0.542445       -14.7607
  88   2.0000      -0.538027       -14.6405
  89   2.0000      -0.537488       -14.6258
  90   2.0000      -0.530787       -14.4434
  91   2.0000      -0.525808       -14.3080
  92   2.0000      -0.525019       -14.2865
  93   2.0000      -0.519008       -14.1229
  94   2.0000      -0.516655       -14.0589
  95   2.0000      -0.514864       -14.0102
  96   2.0000      -0.495974       -13.4961
  97   2.0000      -0.487948       -13.2777
  98   2.0000      -0.483416       -13.1544
  99   2.0000      -0.477161       -12.9842
 100   2.0000      -0.471602       -12.8330
 101   2.0000      -0.468325       -12.7438
 102   2.0000      -0.449828       -12.2404
 103   2.0000      -0.446646       -12.1539
 104   2.0000      -0.445975       -12.1356
 105   2.0000      -0.439155       -11.9500
 106   2.0000      -0.435489       -11.8503
 107   2.0000      -0.433948       -11.8083
 108   2.0000      -0.421039       -11.4570
 109   2.0000      -0.418648       -11.3920
 110   2.0000      -0.400365       -10.8945
 111   2.0000      -0.398526       -10.8445
 112   2.0000      -0.391960       -10.6658
 113   2.0000      -0.385249       -10.4832
 114   2.0000      -0.375334       -10.2134
 115   2.0000      -0.372775       -10.1437
 116   2.0000      -0.366186        -9.9644
 117   2.0000      -0.350728        -9.5438
 118   2.0000      -0.343488        -9.3468
 119   2.0000      -0.330428        -8.9914
 120   2.0000      -0.301161        -8.1950
 121   2.0000      -0.293580        -7.9887
 122   2.0000      -0.288560        -7.8521
 123   0.0000      -0.032665        -0.8889
 124   0.0000      -0.001510        -0.0411
 125   0.0000       0.020138         0.5480
 126   0.0000       0.037335         1.0159
 127   0.0000       0.047276         1.2865

MULLIKEN ATOMIC CHARGES
-----------------------
   0 C :   -0.175790
   1 C :   -0.128376
   2 C :   -0.022737
   3 C :    0.179437
   4 C :   -0.241607
   5 C :   -0.077604
   6 C :   -0.028222
   7 C :    0.191495
   8 N :   -0.301725
   9 C :   -0.227323
  10 C :   -0.095875
  11 C :   -0.279437
  12 C :    0.129322
  13 H :    0.129962
  14 H :    0.236772
  15 H :    0.127355
  16 H :    0.157352
  17 H :    0.113668
  18 H :    0.122044
  19 H :    0.118600
  20 S :    0.058641
  21 C :    0.093140
  22 N :   -0.173277
  23 N :   -0.158612
  24 C :    0.167349
  25 C :    0.119209
  26 N :   -0.170017
  27 N :   -0.193462
  28 C :    0.141581
  29 S :    0.063047
  30 C :   -0.195313
  31 C :    0.066854
  32 C :    0.004506
  33 C :    0.131541
  34 C :   -0.240537
  35 C :   -0.087381
  36 C :   -0.289097
  37 C :   -0.126754
  38 C :   -0.236984
  39 C :    0.260854
  40 O :   -0.423487
  41 H :    0.110355
  42 H :    0.155026
  43 H :    0.129006
  44 H :    0.129313
  45 H :    0.133282
  46 H :    0.333291
  47 H :    0.120939
  48 H :    0.149674
Sum of atomic charges:   -0.0000000

LOEWDIN ATOMIC CHARGES
----------------------
   0 C :   -0.157912
   1 C :   -0.091549
   2 C :   -0.077919
   3 C :   -0.144460
   4 C :   -0.136461
   5 C :   -0.139163
   6 C :   -0.028234
   7 C :   -0.143149
   8 N :    0.201506
   9 C :   -0.117975
  10 C :   -0.141236
  11 C :   -0.122843
  12 C :   -0.116182
  13 H :    0.145498
  14 H :    0.193540
  15 H :    0.147972
  16 H :    0.154070
  17 H :    0.142493
  18 H :    0.144497
  19 H :    0.144020
  20 S :    0.740376
  21 C :   -0.462201
  22 N :    0.046461
  23 N :    0.043848
  24 C :   -0.379052
  25 C :   -0.460314
  26 N :    0.043233
  27 N :    0.047540
  28 C :   -0.374363
  29 S :    0.738473
  30 C :   -0.077081
  31 C :   -0.070493
  32 C :   -0.054861
  33 C :   -0.110544
  34 C :   -0.071511
  35 C :   -0.137838
  36 C :   -0.134526
  37 C :   -0.133645
  38 C :   -0.152543
  39 C :   -0.221656
  40 O :    0.087122
  41 H :    0.142344
  42 H :    0.159392
  43 H :    0.148688
  44 H :    0.148850
  45 H :    0.140940
  46 H :    0.194988
  47 H :    0.145812
  48 H :    0.156050

  Mayer bond orders larger than 0.1
B(  0-C ,  1-C ) :   1.5373 B(  0-C ,  5-C ) :   1.3535 B(  0-C , 19-H ) :   0.9872
B(  1-C ,  2-C ) :   1.2664 B(  1-C , 16-H ) :   0.9357 B(  2-C ,  3-C ) :   1.3515
B(  2-C ,  6-C ) :   1.0794 B(  3-C ,  4-C ) :   1.3032 B(  3-C ,  8-N ) :   1.1142
B(  4-C ,  5-C ) :   1.4843 B(  4-C , 17-H ) :   0.9758 B(  5-C , 18-H ) :   0.9810
B(  6-C ,  7-C ) :   1.3186 B(  6-C , 12-C ) :   1.2454 B(  7-C ,  8-N ) :   1.1555
B(  7-C ,  9-C ) :   1.2840 B(  8-N , 14-H ) :   0.9125 B(  9-C , 10-C ) :   1.4661
B(  9-C , 47-H ) :   0.9759 B( 10-C , 11-C ) :   1.4221 B( 10-C , 15-H ) :   0.9807
B( 11-C , 12-C ) :   1.4046 B( 11-C , 13-H ) :   0.9602 B( 12-C , 28-C ) :   0.9428
B( 20-S , 21-C ) :   1.3050 B( 20-S , 24-C ) :   1.2459 B( 21-C , 22-N ) :   1.7262
B( 21-C , 25-C ) :   0.9332 B( 22-N , 23-N ) :   1.1654 B( 23-N , 24-C ) :   1.6659
B( 24-C , 33-C ) :   0.8655 B( 25-C , 26-N ) :   1.7004 B( 25-C , 29-S ) :   1.2982
B( 26-N , 27-N ) :   1.1211 B( 27-N , 28-C ) :   1.6481 B( 28-C , 29-S ) :   1.2899
B( 30-C , 31-C ) :   1.2361 B( 30-C , 35-C ) :   1.5003 B( 30-C , 48-H ) :   0.9637
B( 31-C , 32-C ) :   1.3540 B( 31-C , 39-C ) :   1.2303 B( 32-C , 33-C ) :   1.1730
B( 32-C , 36-C ) :   1.2673 B( 33-C , 34-C ) :   1.5132 B( 34-C , 35-C ) :   1.2885
B( 34-C , 42-H ) :   0.9553 B( 35-C , 43-H ) :   0.9931 B( 36-C , 37-C ) :   1.6122
B( 36-C , 45-H ) :   0.9335 B( 37-C , 38-C ) :   1.2962 B( 37-C , 44-H ) :   0.9717
B( 38-C , 39-C ) :   1.4737 B( 38-C , 41-H ) :   0.9694 B( 39-C , 40-O ) :   1.1706
B( 40-O , 46-H ) :   0.8738

Dispersion correction           -0.022373971
FINAL SINGLE POINT ENERGY     -2145.253095508388

DIPOLE MOMENT
-------------
                                X             Y             Z
Electronic contribution:     -2.06732      -1.95643       7.93474
Nuclear contribution   :      2.40455       1.79439      -8.55519
                        -----------------------------------------
Total Dipole Moment    :      0.33722      -0.16203      -0.62045
                        -----------------------------------------
Magnitude (a.u.)       :      0.72452
Magnitude (Debye)      :      1.84159

                             ****ORCA TERMINATED NORMALLY****
TOTAL RUN TIME: 0 days 0 hours 13 minutes 12 seconds 285 msec
