                         Program Version 4.0.0 -  RELEASE  -
|  1> #
|  2> !wB97X-D3 def2-TZVP def2/J RIJCOSX Grid5 FinalGrid6 TightSCF
|  3> %pal
|  4>  nprocs 24
|  5> end
|  6> %tddft
|  7>   Mode sTDDFT
|  8>   nroots 2
|  9>   Ethresh 10.0
| 10>   maxcore 5000
| 11>   triplets true
| 12> end
| 13> * xyz 0 1
| 14> C -3.81947035 -1.53334622 2.84092583
| 15> C -3.43398966 -0.86020781 1.68372420
| 16> C -4.38274408 -0.07900545 0.99864418
| 17> C -5.71600577 -0.03694917 1.49535061
| 18> C -6.10439181 -0.70680411 2.66562111
| 19> C -5.13366654 -1.44991938 3.33368027
| 20> C -4.37116120 0.71131456 -0.22170396
| 21> C -5.70946838 1.15633674 -0.41812579
| 22> N -6.49330904 0.72057045 0.63616953
| 23> C -6.10832625 1.89277066 -1.54439934
| 24> C -5.13475908 2.16863401 -2.50314488
| 25> C -3.80703824 1.75463743 -2.32862305
| 26> C -3.38552488 1.04968593 -1.18606764
| 27> H -3.07013830 2.01236885 -3.08533756
| 28> H -7.48789712 0.88410183 0.73278610
| 29> H -5.40432870 2.72405463 -3.39734604
| 30> H -2.41723600 -0.95922381 1.31520434
| 31> H -7.12682732 -0.65593163 3.03053545
| 32> H -5.39836420 -1.98372680 4.24257734
| 33> H -3.09142819 -2.13824186 3.37445238
| 34> N 2.85769014 -0.13243052 -0.77455336
| 35> C 1.81218796 -0.10376176 -1.68949636
| 36> C 2.16462520 -0.42762385 -2.98896435
| 37> S 3.86874569 -0.78403859 -3.08693341
| 38> C 4.00492074 -0.46710101 -1.32880394
| 39> C 0.47034221 0.24746052 -1.24528312
| 40> S -0.91730643 0.29457178 -2.36325430
| 41> C -1.96131687 0.74040976 -1.01244905
| 42> C -1.19401911 0.83814612 0.13383373
| 43> N 0.14651911 0.56141569 -0.00105660
| 44> H 1.51099679 -0.46727544 -3.85129771
| 45> H -1.58159677 1.15082291 1.10114471
| 46> C 5.28227725 -0.58178801 -0.62472396
| 47> C 5.38814232 -0.27853014 0.75921463
| 48> C 6.62280420 -0.42750649 1.41184116
| 49> C 7.77873537 -0.80483709 0.70794754
| 50> C 7.69019822 -1.08559708 -0.66540313
| 51> C 6.45427688 -0.98294846 -1.30135582
| 52> O 8.95027554 -0.89755557 1.38109272
| 53> O 6.75354362 -0.16979311 2.78890426
| 54> O 4.30776668 0.14456604 1.46461759
| 55> H 6.38949002 -1.21202585 -2.36208712
| 56> H 8.77738772 -0.65193874 2.30425281
| 57> H 5.99585508 -0.52837622 3.27246398
| 58> H 4.58689824 0.52305962 2.30880952
| 59> H -7.13663358 2.21929581 -1.67062030
| 60> H 8.57366888 -1.38793915 -1.21576320
| 61> *
| 62> $new_job
| 63> #
| 64> !wB97X-D3 def2-TZVP def2/J RIJCOSX Grid5 FinalGrid6 TightSCF
| 65> %pal
| 66>  nprocs 24
| 67> end
| 68> %elprop
| 69>    dipole     true
| 70>    quadrupole true
| 71> end
| 72> %tddft
| 73>   Mode sTDDFT
| 74>   nroots 2
| 75>   Ethresh 10.0
| 76>   maxcore 5000
| 77> end
| 78> * xyz 0 1
| 79> C -3.81947035 -1.53334622 2.84092583
| 80> C -3.43398966 -0.86020781 1.68372420
| 81> C -4.38274408 -0.07900545 0.99864418
| 82> C -5.71600577 -0.03694917 1.49535061
| 83> C -6.10439181 -0.70680411 2.66562111
| 84> C -5.13366654 -1.44991938 3.33368027
| 85> C -4.37116120 0.71131456 -0.22170396
| 86> C -5.70946838 1.15633674 -0.41812579
| 87> N -6.49330904 0.72057045 0.63616953
| 88> C -6.10832625 1.89277066 -1.54439934
| 89> C -5.13475908 2.16863401 -2.50314488
| 90> C -3.80703824 1.75463743 -2.32862305
| 91> C -3.38552488 1.04968593 -1.18606764
| 92> H -3.07013830 2.01236885 -3.08533756
| 93> H -7.48789712 0.88410183 0.73278610
| 94> H -5.40432870 2.72405463 -3.39734604
| 95> H -2.41723600 -0.95922381 1.31520434
| 96> H -7.12682732 -0.65593163 3.03053545
| 97> H -5.39836420 -1.98372680 4.24257734
| 98> H -3.09142819 -2.13824186 3.37445238
| 99> N 2.85769014 -0.13243052 -0.77455336
|100> C 1.81218796 -0.10376176 -1.68949636
|101> C 2.16462520 -0.42762385 -2.98896435
|102> S 3.86874569 -0.78403859 -3.08693341
|103> C 4.00492074 -0.46710101 -1.32880394
|104> C 0.47034221 0.24746052 -1.24528312
|105> S -0.91730643 0.29457178 -2.36325430
|106> C -1.96131687 0.74040976 -1.01244905
|107> C -1.19401911 0.83814612 0.13383373
|108> N 0.14651911 0.56141569 -0.00105660
|109> H 1.51099679 -0.46727544 -3.85129771
|110> H -1.58159677 1.15082291 1.10114471
|111> C 5.28227725 -0.58178801 -0.62472396
|112> C 5.38814232 -0.27853014 0.75921463
|113> C 6.62280420 -0.42750649 1.41184116
|114> C 7.77873537 -0.80483709 0.70794754
|115> C 7.69019822 -1.08559708 -0.66540313
|116> C 6.45427688 -0.98294846 -1.30135582
|117> O 8.95027554 -0.89755557 1.38109272
|118> O 6.75354362 -0.16979311 2.78890426
|119> O 4.30776668 0.14456604 1.46461759
|120> H 6.38949002 -1.21202585 -2.36208712
|121> H 8.77738772 -0.65193874 2.30425281
|122> H 5.99585508 -0.52837622 3.27246398
|123> H 4.58689824 0.52305962 2.30880952
|124> H -7.13663358 2.21929581 -1.67062030
|125> H 8.57366888 -1.38793915 -1.21576320
|126> *
|127>
|128>                          ****END OF INPUT****
 Total Charge           Charge          ....    0
 Multiplicity           Mult            ....    1
 Number of Electrons    NEL             ....  236
Dispersion correction           -0.021639859
FINAL SINGLE POINT ENERGY     -2110.025251113180

CARTESIAN COORDINATES (ANGSTROEM)
---------------------------------
  C     -3.819470   -1.533346    2.840926
  C     -3.433990   -0.860208    1.683724
  C     -4.382744   -0.079005    0.998644
  C     -5.716006   -0.036949    1.495351
  C     -6.104392   -0.706804    2.665621
  C     -5.133667   -1.449919    3.333680
  C     -4.371161    0.711315   -0.221704
  C     -5.709468    1.156337   -0.418126
  N     -6.493309    0.720570    0.636170
  C     -6.108326    1.892771   -1.544399
  C     -5.134759    2.168634   -2.503145
  C     -3.807038    1.754637   -2.328623
  C     -3.385525    1.049686   -1.186068
  H     -3.070138    2.012369   -3.085338
  H     -7.487897    0.884102    0.732786
  H     -5.404329    2.724055   -3.397346
  H     -2.417236   -0.959224    1.315204
  H     -7.126827   -0.655932    3.030535
  H     -5.398364   -1.983727    4.242577
  H     -3.091428   -2.138242    3.374452
  N      2.857690   -0.132431   -0.774553
  C      1.812188   -0.103762   -1.689496
  C      2.164625   -0.427624   -2.988964
  S      3.868746   -0.784039   -3.086933
  C      4.004921   -0.467101   -1.328804
  C      0.470342    0.247461   -1.245283
  S     -0.917306    0.294572   -2.363254
  C     -1.961317    0.740410   -1.012449
  C     -1.194019    0.838146    0.133834
  N      0.146519    0.561416   -0.001057
  H      1.510997   -0.467275   -3.851298
  H     -1.581597    1.150823    1.101145
  C      5.282277   -0.581788   -0.624724
  C      5.388142   -0.278530    0.759215
  C      6.622804   -0.427506    1.411841
  C      7.778735   -0.804837    0.707948
  C      7.690198   -1.085597   -0.665403
  C      6.454277   -0.982948   -1.301356
  O      8.950276   -0.897556    1.381093
  O      6.753544   -0.169793    2.788904
  O      4.307767    0.144566    1.464618
  H      6.389490   -1.212026   -2.362087
  H      8.777388   -0.651939    2.304253
  H      5.995855   -0.528376    3.272464
  H      4.586898    0.523060    2.308810
  H     -7.136634    2.219296   -1.670620
  H      8.573669   -1.387939   -1.215763

 Multiplicity           Mult            ....    1
 Number of Electrons    NEL             ....  236
 Basis Dimension        Dim             .... 1094

ORBITAL ENERGIES
----------------

  NO   OCC          E(Eh)            E(eV)
   0   2.0000     -88.988293     -2421.4946
   1   2.0000     -88.984533     -2421.3922
   2   2.0000     -19.293206      -524.9948
   3   2.0000     -19.275877      -524.5233
   4   2.0000     -19.274162      -524.4766
   5   2.0000     -14.468196      -393.6996
   6   2.0000     -14.422673      -392.4609
   7   2.0000     -14.422235      -392.4490
   8   2.0000     -10.367774      -282.1215
   9   2.0000     -10.362742      -281.9845
  10   2.0000     -10.361995      -281.9642
  11   2.0000     -10.355666      -281.7920
  12   2.0000     -10.352004      -281.6924
  13   2.0000     -10.331614      -281.1375
  14   2.0000     -10.329100      -281.0691
  15   2.0000     -10.325719      -280.9771
  16   2.0000     -10.324121      -280.9336
  17   2.0000     -10.321817      -280.8709
  18   2.0000     -10.311028      -280.5773
  19   2.0000     -10.309283      -280.5298
  20   2.0000     -10.307674      -280.4861
  21   2.0000     -10.302739      -280.3518
  22   2.0000     -10.295278      -280.1488
  23   2.0000     -10.289762      -279.9987
  24   2.0000     -10.289754      -279.9984
  25   2.0000     -10.288784      -279.9721
  26   2.0000     -10.288775      -279.9718
  27   2.0000     -10.286288      -279.9041
  28   2.0000     -10.284496      -279.8554
  29   2.0000     -10.283223      -279.8207
  30   2.0000     -10.281926      -279.7854
  31   2.0000     -10.274785      -279.5911
  32   2.0000      -8.084820      -219.9991
  33   2.0000      -8.081160      -219.8995
  34   2.0000      -6.037985      -164.3019
  35   2.0000      -6.034218      -164.1994
  36   2.0000      -6.033974      -164.1928
  37   2.0000      -6.031946      -164.1376
  38   2.0000      -6.030389      -164.0952
  39   2.0000      -6.028316      -164.0388
  40   2.0000      -1.213868       -33.0310
  41   2.0000      -1.193406       -32.4742
  42   2.0000      -1.174135       -31.9498
  43   2.0000      -1.104790       -30.0629
  44   2.0000      -1.083409       -29.4811
  45   2.0000      -1.064207       -28.9585
  46   2.0000      -0.982851       -26.7447
  47   2.0000      -0.976985       -26.5851
  48   2.0000      -0.965248       -26.2657
  49   2.0000      -0.919651       -25.0250
  50   2.0000      -0.914046       -24.8725
  51   2.0000      -0.906656       -24.6714
  52   2.0000      -0.898981       -24.4625
  53   2.0000      -0.876615       -23.8539
  54   2.0000      -0.869056       -23.6482
  55   2.0000      -0.864335       -23.5198
  56   2.0000      -0.843803       -22.9610
  57   2.0000      -0.838785       -22.8245
  58   2.0000      -0.817635       -22.2490
  59   2.0000      -0.766134       -20.8476
  60   2.0000      -0.762691       -20.7539
  61   2.0000      -0.750745       -20.4288
  62   2.0000      -0.727592       -19.7988
  63   2.0000      -0.716694       -19.5022
  64   2.0000      -0.714787       -19.4503
  65   2.0000      -0.701872       -19.0989
  66   2.0000      -0.698495       -19.0070
  67   2.0000      -0.679451       -18.4888
  68   2.0000      -0.672543       -18.3008
  69   2.0000      -0.665205       -18.1012
  70   2.0000      -0.643023       -17.4976
  71   2.0000      -0.635616       -17.2960
  72   2.0000      -0.630430       -17.1549
  73   2.0000      -0.619269       -16.8512
  74   2.0000      -0.612095       -16.6560
  75   2.0000      -0.600659       -16.3448
  76   2.0000      -0.578493       -15.7416
  77   2.0000      -0.573219       -15.5981
  78   2.0000      -0.568604       -15.4725
  79   2.0000      -0.564516       -15.3613
  80   2.0000      -0.557093       -15.1593
  81   2.0000      -0.548672       -14.9301
  82   2.0000      -0.540822       -14.7165
  83   2.0000      -0.537675       -14.6309
  84   2.0000      -0.532165       -14.4809
  85   2.0000      -0.528763       -14.3884
  86   2.0000      -0.526732       -14.3331
  87   2.0000      -0.524212       -14.2645
  88   2.0000      -0.520355       -14.1596
  89   2.0000      -0.515902       -14.0384
  90   2.0000      -0.512009       -13.9325
  91   2.0000      -0.507044       -13.7974
  92   2.0000      -0.500555       -13.6208
  93   2.0000      -0.491922       -13.3859
  94   2.0000      -0.479813       -13.0564
  95   2.0000      -0.478424       -13.0186
  96   2.0000      -0.471660       -12.8345
  97   2.0000      -0.468190       -12.7401
  98   2.0000      -0.464027       -12.6268
  99   2.0000      -0.458146       -12.4668
 100   2.0000      -0.453610       -12.3433
 101   2.0000      -0.448625       -12.2077
 102   2.0000      -0.442778       -12.0486
 103   2.0000      -0.439545       -11.9606
 104   2.0000      -0.434026       -11.8104
 105   2.0000      -0.432024       -11.7560
 106   2.0000      -0.390645       -10.6300
 107   2.0000      -0.377961       -10.2849
 108   2.0000      -0.376122       -10.2348
 109   2.0000      -0.369044       -10.0422
 110   2.0000      -0.365365        -9.9421
 111   2.0000      -0.354179        -9.6377
 112   2.0000      -0.347292        -9.4503
 113   2.0000      -0.323869        -8.8129
 114   2.0000      -0.318396        -8.6640
 115   2.0000      -0.298794        -8.1306
 116   2.0000      -0.292237        -7.9522
 117   2.0000      -0.275022        -7.4837
 118   0.0000      -0.003657        -0.0995
 119   0.0000       0.016816         0.4576
 120   0.0000       0.036496         0.9931
 121   0.0000       0.059373         1.6156
 122   0.0000       0.062399         1.6980

MULLIKEN ATOMIC CHARGES
-----------------------
   0 C :   -0.156945
   1 C :   -0.220637
   2 C :   -0.041102
   3 C :    0.172470
   4 C :   -0.227097
   5 C :   -0.092562
   6 C :   -0.015919
   7 C :    0.181371
   8 N :   -0.301744
   9 C :   -0.246271
  10 C :   -0.079076
  11 C :   -0.275983
  12 C :    0.210058
  13 H :    0.128338
  14 H :    0.236179
  15 H :    0.123560
  16 H :    0.213391
  17 H :    0.114857
  18 H :    0.122080
  19 H :    0.120052
  20 N :   -0.237905
  21 C :    0.066602
  22 C :   -0.233465
  23 S :    0.037674
  24 C :    0.247945
  25 C :    0.150897
  26 S :    0.001794
  27 C :    0.052690
  28 C :   -0.233183
  29 N :   -0.233991
  30 H :    0.168331
  31 H :    0.189825
  32 C :   -0.063167
  33 C :    0.059051
  34 C :    0.191368
  35 C :    0.179280
  36 C :   -0.279887
  37 C :   -0.126274
  38 O :   -0.407521
  39 O :   -0.509640
  40 O :   -0.358245
  41 H :    0.133469
  42 H :    0.343233
  43 H :    0.335170
  44 H :    0.310479
  45 H :    0.116187
  46 H :    0.134261
Sum of atomic charges:   -0.0000000

LOEWDIN ATOMIC CHARGES
----------------------
   0 C :   -0.158278
   1 C :   -0.104208
   2 C :   -0.081217
   3 C :   -0.145477
   4 C :   -0.133353
   5 C :   -0.142331
   6 C :   -0.041202
   7 C :   -0.143831
   8 N :    0.200146
   9 C :   -0.130043
  10 C :   -0.141342
  11 C :   -0.126257
  12 C :   -0.110196
  13 H :    0.145551
  14 H :    0.192915
  15 H :    0.146480
  16 H :    0.155147
  17 H :    0.142956
  18 H :    0.144510
  19 H :    0.144152
  20 N :    0.166470
  21 C :   -0.282018
  22 C :   -0.369171
  23 S :    0.677798
  24 C :   -0.358801
  25 C :   -0.382244
  26 S :    0.711344
  27 C :   -0.321604
  28 C :   -0.231037
  29 N :    0.126523
  30 H :    0.131364
  31 H :    0.148463
  32 C :   -0.144537
  33 C :   -0.207158
  34 C :   -0.234268
  35 C :   -0.248903
  36 C :   -0.131683
  37 C :   -0.104814
  38 O :    0.094227
  39 O :    0.015465
  40 O :    0.118356
  41 H :    0.147905
  42 H :    0.199124
  43 H :    0.186329
  44 H :    0.182967
  45 H :    0.143616
  46 H :    0.152161

  Mayer bond orders larger than 0.1
B(  0-C ,  1-C ) :   1.5362 B(  0-C ,  5-C ) :   1.3579 B(  0-C , 19-H ) :   0.9846
B(  1-C ,  2-C ) :   1.2840 B(  1-C , 16-H ) :   0.9181 B(  2-C ,  3-C ) :   1.3710
B(  2-C ,  6-C ) :   1.0554 B(  3-C ,  4-C ) :   1.3074 B(  3-C ,  8-N ) :   1.1209
B(  4-C ,  5-C ) :   1.4825 B(  4-C , 17-H ) :   0.9760 B(  5-C , 18-H ) :   0.9827
B(  6-C ,  7-C ) :   1.3318 B(  6-C , 12-C ) :   1.2202 B(  7-C ,  8-N ) :   1.1500
B(  7-C ,  9-C ) :   1.2818 B(  8-N , 14-H ) :   0.9129 B(  9-C , 10-C ) :   1.4683
B(  9-C , 45-H ) :   0.9782 B( 10-C , 11-C ) :   1.4032 B( 10-C , 15-H ) :   0.9827
B( 11-C , 12-C ) :   1.4283 B( 11-C , 13-H ) :   0.9632 B( 12-C , 27-C ) :   0.8274
B( 20-N , 21-C ) :   1.2680 B( 20-N , 24-C ) :   1.6974 B( 21-C , 22-C ) :   1.6582
B( 21-C , 25-C ) :   0.9953 B( 22-C , 23-S ) :   1.2718 B( 22-C , 30-H ) :   0.9317
B( 23-S , 24-C ) :   1.2444 B( 24-C , 32-C ) :   0.9486 B( 25-C , 26-S ) :   1.3055
B( 25-C , 29-N ) :   1.6327 B( 26-S , 27-C ) :   1.2435 B( 26-S , 28-C ) :   0.1079
B( 27-C , 28-C ) :   1.5932 B( 28-C , 29-N ) :   1.3076 B( 28-C , 31-H ) :   0.9728
B( 32-C , 33-C ) :   1.3325 B( 32-C , 37-C ) :   1.3077 B( 33-C , 34-C ) :   1.3847
B( 33-C , 40-O ) :   1.2384 B( 34-C , 35-C ) :   1.3159 B( 34-C , 39-O ) :   0.9045
B( 35-C , 36-C ) :   1.3992 B( 35-C , 38-O ) :   1.1894 B( 36-C , 37-C ) :   1.4966
B( 36-C , 46-H ) :   0.9811 B( 37-C , 41-H ) :   0.9636 B( 38-O , 42-H ) :   0.8570
B( 39-O , 43-H ) :   0.8729 B( 40-O , 44-H ) :   0.8667

Dispersion correction           -0.021639859
FINAL SINGLE POINT ENERGY     -2110.025251045067

DIPOLE MOMENT
-------------
                                X             Y             Z
Electronic contribution:     11.71596       0.26211      -9.05333
Nuclear contribution   :    -12.65407      -0.24983       9.55499
                        -----------------------------------------
Total Dipole Moment    :     -0.93811       0.01229       0.50166
                        -----------------------------------------
Magnitude (a.u.)       :      1.06389
Magnitude (Debye)      :      2.70419

                             ****ORCA TERMINATED NORMALLY****
TOTAL RUN TIME: 0 days 0 hours 11 minutes 3 seconds 674 msec
