                         Program Version 4.0.0 -  RELEASE  -
|  1> #
|  2> !wB97X-D3 def2-TZVP def2/J RIJCOSX Grid5 FinalGrid6 TightSCF
|  3> %pal
|  4>  nprocs 24
|  5> end
|  6> %tddft
|  7>   Mode sTDDFT
|  8>   nroots 2
|  9>   Ethresh 10.0
| 10>   maxcore 5000
| 11>   triplets true
| 12> end
| 13> * xyz 0 1
| 14> C -4.84153957 2.45766042 -0.65317239
| 15> C -3.89458428 1.47080774 -0.38866320
| 16> C -4.31128220 0.13000366 -0.29660462
| 17> C -5.68470381 -0.17248669 -0.51598711
| 18> C -6.64183411 0.82078203 -0.77383615
| 19> C -6.19959530 2.14046541 -0.83233972
| 20> C -3.63792120 -1.14012546 -0.07983788
| 21> C -4.63578233 -2.14651369 -0.21933437
| 22> N -5.85972652 -1.54422902 -0.45303452
| 23> C -4.34691511 -3.51819319 -0.14912033
| 24> C -3.01541444 -3.88036387 0.04766634
| 25> C -2.01517806 -2.91040211 0.20170866
| 26> C -2.29695124 -1.53226624 0.17187607
| 27> H -0.99190552 -3.23127806 0.38090087
| 28> H -6.73283012 -2.03329162 -0.60744338
| 29> H -2.74636404 -4.93205945 0.09410089
| 30> H -2.84922569 1.74251621 -0.27479239
| 31> H -7.68686145 0.56801214 -0.93219817
| 32> H -6.91216714 2.93637079 -1.03178305
| 33> H -4.52610725 3.49487093 -0.72539311
| 34> N 3.22522985 0.42777206 -0.01931336
| 35> C 2.27894822 1.14765480 0.69492233
| 36> C 2.75826854 2.29136648 1.31621528
| 37> S 4.45860662 2.48234351 1.00087506
| 38> C 4.42257974 0.98947498 0.03692929
| 39> C 0.90717574 0.67049904 0.73814289
| 40> S 0.43065430 -0.80940972 -0.11112273
| 41> C -1.22248685 -0.56978590 0.44656252
| 42> C -1.27275811 0.57021127 1.22985295
| 43> N -0.09025062 1.25644074 1.38601508
| 44> H 2.18529544 2.98524601 1.91694715
| 45> H -2.16568448 0.91960656 1.74333769
| 46> N 9.07387929 1.37177901 -0.91617281
| 47> C 8.02357519 0.56615939 -1.17018590
| 48> C 6.88313442 1.11726402 -0.51585538
| 49> N 7.26418281 2.23926287 0.11756270
| 50> O 8.58789137 2.36634820 -0.14174878
| 51> C 5.61300988 0.46373104 -0.61382498
| 52> C 5.60322638 -0.70468181 -1.37357838
| 53> N 6.70239220 -1.23730849 -2.00507357
| 54> C 7.88533690 -0.64206396 -1.92256545
| 55> H 4.66668482 -1.25586642 -1.49121633
| 56> H -5.12698812 -4.26595165 -0.25995335
| 57> H 8.73498586 -1.10027197 -2.44106438
| 58> *
| 59> $new_job
| 60> #
| 61> !wB97X-D3 def2-TZVP def2/J RIJCOSX Grid5 FinalGrid6 TightSCF
| 62> %pal
| 63>  nprocs 24
| 64> end
| 65> %elprop
| 66>    dipole     true
| 67>    quadrupole true
| 68> end
| 69> %tddft
| 70>   Mode sTDDFT
| 71>   nroots 2
| 72>   Ethresh 10.0
| 73>   maxcore 5000
| 74> end
| 75> * xyz 0 1
| 76> C -4.84153957 2.45766042 -0.65317239
| 77> C -3.89458428 1.47080774 -0.38866320
| 78> C -4.31128220 0.13000366 -0.29660462
| 79> C -5.68470381 -0.17248669 -0.51598711
| 80> C -6.64183411 0.82078203 -0.77383615
| 81> C -6.19959530 2.14046541 -0.83233972
| 82> C -3.63792120 -1.14012546 -0.07983788
| 83> C -4.63578233 -2.14651369 -0.21933437
| 84> N -5.85972652 -1.54422902 -0.45303452
| 85> C -4.34691511 -3.51819319 -0.14912033
| 86> C -3.01541444 -3.88036387 0.04766634
| 87> C -2.01517806 -2.91040211 0.20170866
| 88> C -2.29695124 -1.53226624 0.17187607
| 89> H -0.99190552 -3.23127806 0.38090087
| 90> H -6.73283012 -2.03329162 -0.60744338
| 91> H -2.74636404 -4.93205945 0.09410089
| 92> H -2.84922569 1.74251621 -0.27479239
| 93> H -7.68686145 0.56801214 -0.93219817
| 94> H -6.91216714 2.93637079 -1.03178305
| 95> H -4.52610725 3.49487093 -0.72539311
| 96> N 3.22522985 0.42777206 -0.01931336
| 97> C 2.27894822 1.14765480 0.69492233
| 98> C 2.75826854 2.29136648 1.31621528
| 99> S 4.45860662 2.48234351 1.00087506
|100> C 4.42257974 0.98947498 0.03692929
|101> C 0.90717574 0.67049904 0.73814289
|102> S 0.43065430 -0.80940972 -0.11112273
|103> C -1.22248685 -0.56978590 0.44656252
|104> C -1.27275811 0.57021127 1.22985295
|105> N -0.09025062 1.25644074 1.38601508
|106> H 2.18529544 2.98524601 1.91694715
|107> H -2.16568448 0.91960656 1.74333769
|108> N 9.07387929 1.37177901 -0.91617281
|109> C 8.02357519 0.56615939 -1.17018590
|110> C 6.88313442 1.11726402 -0.51585538
|111> N 7.26418281 2.23926287 0.11756270
|112> O 8.58789137 2.36634820 -0.14174878
|113> C 5.61300988 0.46373104 -0.61382498
|114> C 5.60322638 -0.70468181 -1.37357838
|115> N 6.70239220 -1.23730849 -2.00507357
|116> C 7.88533690 -0.64206396 -1.92256545
|117> H 4.66668482 -1.25586642 -1.49121633
|118> H -5.12698812 -4.26595165 -0.25995335
|119> H 8.73498586 -1.10027197 -2.44106438
|120> *
|121>
|122>                          ****END OF INPUT****
 Total Charge           Charge          ....    0
 Multiplicity           Mult            ....    1
 Number of Electrons    NEL             ....  232
Dispersion correction           -0.020338868
FINAL SINGLE POINT ENERGY     -2083.808884385295

CARTESIAN COORDINATES (ANGSTROEM)
---------------------------------
  C     -4.841540    2.457660   -0.653172
  C     -3.894584    1.470808   -0.388663
  C     -4.311282    0.130004   -0.296605
  C     -5.684704   -0.172487   -0.515987
  C     -6.641834    0.820782   -0.773836
  C     -6.199595    2.140465   -0.832340
  C     -3.637921   -1.140125   -0.079838
  C     -4.635782   -2.146514   -0.219334
  N     -5.859727   -1.544229   -0.453035
  C     -4.346915   -3.518193   -0.149120
  C     -3.015414   -3.880364    0.047666
  C     -2.015178   -2.910402    0.201709
  C     -2.296951   -1.532266    0.171876
  H     -0.991906   -3.231278    0.380901
  H     -6.732830   -2.033292   -0.607443
  H     -2.746364   -4.932059    0.094101
  H     -2.849226    1.742516   -0.274792
  H     -7.686861    0.568012   -0.932198
  H     -6.912167    2.936371   -1.031783
  H     -4.526107    3.494871   -0.725393
  N      3.225230    0.427772   -0.019313
  C      2.278948    1.147655    0.694922
  C      2.758269    2.291366    1.316215
  S      4.458607    2.482344    1.000875
  C      4.422580    0.989475    0.036929
  C      0.907176    0.670499    0.738143
  S      0.430654   -0.809410   -0.111123
  C     -1.222487   -0.569786    0.446563
  C     -1.272758    0.570211    1.229853
  N     -0.090251    1.256441    1.386015
  H      2.185295    2.985246    1.916947
  H     -2.165684    0.919607    1.743338
  N      9.073879    1.371779   -0.916173
  C      8.023575    0.566159   -1.170186
  C      6.883134    1.117264   -0.515855
  N      7.264183    2.239263    0.117563
  O      8.587891    2.366348   -0.141749
  C      5.613010    0.463731   -0.613825
  C      5.603226   -0.704682   -1.373578
  N      6.702392   -1.237308   -2.005074
  C      7.885337   -0.642064   -1.922565
  H      4.666685   -1.255866   -1.491216
  H     -5.126988   -4.265952   -0.259953
  H      8.734986   -1.100272   -2.441064

 Multiplicity           Mult            ....    1
 Number of Electrons    NEL             ....  232
 Basis Dimension        Dim             .... 1076

ORBITAL ENERGIES
----------------

  NO   OCC          E(Eh)            E(eV)
   0   2.0000     -89.007173     -2422.0083
   1   2.0000     -88.989968     -2421.5401
   2   2.0000     -19.403743      -528.0027
   3   2.0000     -14.532603      -395.4522
   4   2.0000     -14.524456      -395.2305
   5   2.0000     -14.470499      -393.7623
   6   2.0000     -14.465407      -393.6237
   7   2.0000     -14.450663      -393.2225
   8   2.0000     -14.433221      -392.7479
   9   2.0000     -10.380858      -282.4775
  10   2.0000     -10.372061      -282.2381
  11   2.0000     -10.366991      -282.1002
  12   2.0000     -10.363604      -282.0080
  13   2.0000     -10.361852      -281.9603
  14   2.0000     -10.355057      -281.7754
  15   2.0000     -10.349353      -281.6202
  16   2.0000     -10.345180      -281.5067
  17   2.0000     -10.333514      -281.1892
  18   2.0000     -10.331539      -281.1355
  19   2.0000     -10.328150      -281.0433
  20   2.0000     -10.327962      -281.0381
  21   2.0000     -10.315352      -280.6950
  22   2.0000     -10.313735      -280.6510
  23   2.0000     -10.297950      -280.2215
  24   2.0000     -10.292338      -280.0688
  25   2.0000     -10.292302      -280.0678
  26   2.0000     -10.291120      -280.0356
  27   2.0000     -10.288634      -279.9680
  28   2.0000     -10.286801      -279.9181
  29   2.0000     -10.286075      -279.8983
  30   2.0000     -10.284646      -279.8595
  31   2.0000     -10.277335      -279.6605
  32   2.0000      -8.103001      -220.4939
  33   2.0000      -8.086136      -220.0349
  34   2.0000      -6.056169      -164.7967
  35   2.0000      -6.051899      -164.6806
  36   2.0000      -6.050407      -164.6400
  37   2.0000      -6.039210      -164.3353
  38   2.0000      -6.035205      -164.2263
  39   2.0000      -6.033454      -164.1786
  40   2.0000      -1.348399       -36.6918
  41   2.0000      -1.107203       -30.1285
  42   2.0000      -1.105021       -30.0692
  43   2.0000      -1.095142       -29.8003
  44   2.0000      -1.076503       -29.2931
  45   2.0000      -1.056486       -28.7485
  46   2.0000      -1.016667       -27.6649
  47   2.0000      -0.980103       -26.6700
  48   2.0000      -0.967760       -26.3341
  49   2.0000      -0.950310       -25.8593
  50   2.0000      -0.929404       -25.2904
  51   2.0000      -0.922142       -25.0928
  52   2.0000      -0.902600       -24.5610
  53   2.0000      -0.896811       -24.4035
  54   2.0000      -0.871327       -23.7100
  55   2.0000      -0.854565       -23.2539
  56   2.0000      -0.844560       -22.9816
  57   2.0000      -0.841316       -22.8934
  58   2.0000      -0.826453       -22.4889
  59   2.0000      -0.796339       -21.6695
  60   2.0000      -0.772881       -21.0312
  61   2.0000      -0.759457       -20.6659
  62   2.0000      -0.735619       -20.0172
  63   2.0000      -0.722999       -19.6738
  64   2.0000      -0.717103       -19.5134
  65   2.0000      -0.712565       -19.3899
  66   2.0000      -0.696935       -18.9646
  67   2.0000      -0.679704       -18.4957
  68   2.0000      -0.668510       -18.1911
  69   2.0000      -0.661426       -17.9983
  70   2.0000      -0.646347       -17.5880
  71   2.0000      -0.643416       -17.5082
  72   2.0000      -0.641703       -17.4616
  73   2.0000      -0.623640       -16.9701
  74   2.0000      -0.614504       -16.7215
  75   2.0000      -0.605742       -16.4831
  76   2.0000      -0.595248       -16.1975
  77   2.0000      -0.586514       -15.9599
  78   2.0000      -0.570381       -15.5209
  79   2.0000      -0.567924       -15.4540
  80   2.0000      -0.560374       -15.2486
  81   2.0000      -0.557338       -15.1659
  82   2.0000      -0.549484       -14.9522
  83   2.0000      -0.539858       -14.6903
  84   2.0000      -0.537493       -14.6259
  85   2.0000      -0.533174       -14.5084
  86   2.0000      -0.530636       -14.4393
  87   2.0000      -0.527548       -14.3553
  88   2.0000      -0.523385       -14.2420
  89   2.0000      -0.519749       -14.1431
  90   2.0000      -0.512857       -13.9555
  91   2.0000      -0.508654       -13.8412
  92   2.0000      -0.484723       -13.1900
  93   2.0000      -0.474425       -12.9098
  94   2.0000      -0.471191       -12.8218
  95   2.0000      -0.466314       -12.6891
  96   2.0000      -0.460947       -12.5430
  97   2.0000      -0.460807       -12.5392
  98   2.0000      -0.453820       -12.3491
  99   2.0000      -0.445252       -12.1159
 100   2.0000      -0.440592       -11.9891
 101   2.0000      -0.437066       -11.8932
 102   2.0000      -0.435125       -11.8404
 103   2.0000      -0.423446       -11.5225
 104   2.0000      -0.402536       -10.9536
 105   2.0000      -0.401130       -10.9153
 106   2.0000      -0.397114       -10.8060
 107   2.0000      -0.384997       -10.4763
 108   2.0000      -0.382740       -10.4149
 109   2.0000      -0.376457       -10.2439
 110   2.0000      -0.372715       -10.1421
 111   2.0000      -0.355385        -9.6705
 112   2.0000      -0.337466        -9.1829
 113   2.0000      -0.310893        -8.4598
 114   2.0000      -0.298502        -8.1226
 115   2.0000      -0.282687        -7.6923
 116   0.0000      -0.061593        -1.6760
 117   0.0000      -0.006418        -0.1746
 118   0.0000       0.012560         0.3418
 119   0.0000       0.029360         0.7989
 120   0.0000       0.044146         1.2013

MULLIKEN ATOMIC CHARGES
-----------------------
   0 C :   -0.154585
   1 C :   -0.220139
   2 C :   -0.049036
   3 C :    0.169812
   4 C :   -0.228021
   5 C :   -0.089335
   6 C :   -0.013527
   7 C :    0.182523
   8 N :   -0.304129
   9 C :   -0.238807
  10 C :   -0.082240
  11 C :   -0.278285
  12 C :    0.206361
  13 H :    0.130625
  14 H :    0.236767
  15 H :    0.124225
  16 H :    0.207864
  17 H :    0.115926
  18 H :    0.122914
  19 H :    0.120849
  20 N :   -0.328245
  21 C :    0.100547
  22 C :   -0.195828
  23 S :    0.114929
  24 C :    0.246488
  25 C :    0.127475
  26 S :    0.058437
  27 C :    0.039454
  28 C :   -0.219864
  29 N :   -0.272910
  30 H :    0.187391
  31 H :    0.190905
  32 N :   -0.062668
  33 C :   -0.009206
  34 C :    0.107641
  35 N :   -0.115264
  36 O :    0.006118
  37 C :   -0.119211
  38 C :   -0.042823
  39 N :   -0.247898
  40 C :    0.013684
  41 H :    0.176943
  42 H :    0.116375
  43 H :    0.167768
Sum of atomic charges:    0.0000000

LOEWDIN ATOMIC CHARGES
----------------------
   0 C :   -0.158011
   1 C :   -0.105353
   2 C :   -0.081525
   3 C :   -0.145059
   4 C :   -0.132489
   5 C :   -0.141310
   6 C :   -0.041360
   7 C :   -0.143483
   8 N :    0.200579
   9 C :   -0.128578
  10 C :   -0.140455
  11 C :   -0.125226
  12 C :   -0.110589
  13 H :    0.146155
  14 H :    0.193255
  15 H :    0.146862
  16 H :    0.154203
  17 H :    0.143291
  18 H :    0.144851
  19 H :    0.144234
  20 N :    0.140857
  21 C :   -0.282897
  22 C :   -0.333590
  23 S :    0.742807
  24 C :   -0.375838
  25 C :   -0.395199
  26 S :    0.746458
  27 C :   -0.321129
  28 C :   -0.231951
  29 N :    0.108895
  30 H :    0.142481
  31 H :    0.148425
  32 N :    0.060029
  33 C :   -0.235650
  34 C :   -0.202779
  35 N :    0.031961
  36 O :    0.234615
  37 C :   -0.131009
  38 C :   -0.119187
  39 N :    0.135519
  40 C :   -0.135329
  41 H :    0.157030
  42 H :    0.143955
  43 H :    0.151534

  Mayer bond orders larger than 0.1
B(  0-C ,  1-C ) :   1.5345 B(  0-C ,  5-C ) :   1.3598 B(  0-C , 19-H ) :   0.9830
B(  1-C ,  2-C ) :   1.2819 B(  1-C , 16-H ) :   0.9194 B(  2-C ,  3-C ) :   1.3727
B(  2-C ,  6-C ) :   1.0647 B(  3-C ,  4-C ) :   1.3119 B(  3-C ,  8-N ) :   1.1203
B(  4-C ,  5-C ) :   1.4870 B(  4-C , 17-H ) :   0.9748 B(  5-C , 18-H ) :   0.9804
B(  6-C ,  7-C ) :   1.3333 B(  6-C , 12-C ) :   1.2219 B(  7-C ,  8-N ) :   1.1487
B(  7-C ,  9-C ) :   1.2839 B(  8-N , 14-H ) :   0.9132 B(  9-C , 10-C ) :   1.4664
B(  9-C , 42-H ) :   0.9770 B( 10-C , 11-C ) :   1.4068 B( 10-C , 15-H ) :   0.9824
B( 11-C , 12-C ) :   1.4303 B( 11-C , 13-H ) :   0.9594 B( 12-C , 27-C ) :   0.8452
B( 20-N , 21-C ) :   1.2314 B( 20-N , 24-C ) :   1.6246 B( 21-C , 22-C ) :   1.6679
B( 21-C , 25-C ) :   0.9812 B( 22-C , 23-S ) :   1.2879 B( 22-C , 30-H ) :   0.9133
B( 23-S , 24-C ) :   1.2826 B( 24-C , 37-C ) :   0.9927 B( 25-C , 26-S ) :   1.3273
B( 25-C , 29-N ) :   1.6177 B( 26-S , 27-C ) :   1.2677 B( 27-C , 28-C ) :   1.5796
B( 28-C , 29-N ) :   1.3159 B( 28-C , 31-H ) :   0.9722 B( 32-N , 33-C ) :   1.5871
B( 32-N , 35-N ) :   0.2029 B( 32-N , 36-O ) :   1.0906 B( 33-C , 34-C ) :   1.2298
B( 33-C , 40-C ) :   1.1120 B( 34-C , 35-N ) :   1.5215 B( 34-C , 37-C ) :   1.1056
B( 35-N , 36-O ) :   1.0445 B( 37-C , 38-C ) :   1.5840 B( 38-C , 39-N ) :   1.2831
B( 38-C , 41-H ) :   0.9512 B( 39-N , 40-C ) :   1.6922 B( 40-C , 43-H ) :   0.9720

Dispersion correction           -0.020338868
FINAL SINGLE POINT ENERGY     -2083.808884339080

DIPOLE MOMENT
-------------
                                X             Y             Z
Electronic contribution:     32.32886       5.53917       1.69608
Nuclear contribution   :    -33.46198      -6.24787      -1.96656
                        -----------------------------------------
Total Dipole Moment    :     -1.13311      -0.70870      -0.27048
                        -----------------------------------------
Magnitude (a.u.)       :      1.36359
Magnitude (Debye)      :      3.46596

                             ****ORCA TERMINATED NORMALLY****
TOTAL RUN TIME: 0 days 0 hours 11 minutes 52 seconds 115 msec
