                         Program Version 4.0.0 -  RELEASE  -
|  1> #
|  2> !wB97X-D3 def2-TZVP def2/J RIJCOSX Grid5 FinalGrid6 TightSCF
|  3> %pal
|  4>  nprocs 24
|  5> end
|  6> %tddft
|  7>   Mode sTDDFT
|  8>   nroots 2
|  9>   Ethresh 10.0
| 10>   maxcore 5000
| 11>   triplets true
| 12> end
| 13> * xyz 0 1
| 14> C 5.00681833 -2.15092036 -1.68218372
| 15> C 4.33444629 -1.28655045 -0.82083735
| 16> C 5.06720429 -0.31553943 -0.11428416
| 17> C 6.48163321 -0.28551877 -0.27251355
| 18> C 7.16119109 -1.15127908 -1.14287826
| 19> C 6.40057861 -2.07894883 -1.85113489
| 20> C 4.73858754 0.70627132 0.86688050
| 21> C 5.97984897 1.27000382 1.28037740
| 22> N 7.00852280 0.68083143 0.56656927
| 23> C 6.07669990 2.24977540 2.28040568
| 24> C 4.89135571 2.66051400 2.88688010
| 25> C 3.65382273 2.13894607 2.48440616
| 26> C 3.53971884 1.17944979 1.46081029
| 27> H 2.74786571 2.51061587 2.95591089
| 28> H 7.99307627 0.88922777 0.67851184
| 29> H 4.92114438 3.40948347 3.67351854
| 30> H 3.26019721 -1.38289583 -0.69342592
| 31> H 8.24156376 -1.10609530 -1.25161986
| 32> H 6.89257840 -2.76725502 -2.53318143
| 33> H 4.44499024 -2.90154174 -2.23138878
| 34> N -2.36345840 -0.25421401 -0.45859697
| 35> C -1.10419434 0.05455561 -0.96146749
| 36> C -1.02585231 0.10784156 -2.34326044
| 37> S -2.57752793 -0.24123087 -3.05368314
| 38> C -3.25599792 -0.42428712 -1.40883643
| 39> C 0.00136709 0.29408115 -0.04424900
| 40> S 1.64414626 0.67549715 -0.61969708
| 41> C 2.18769467 0.76259446 1.05590462
| 42> C 1.10854582 0.52952697 1.88795806
| 43> N -0.09239587 0.25506938 1.27506268
| 44> H -0.14965659 0.33565644 -2.93745565
| 45> H 1.17081581 0.52107954 2.97457988
| 46> C -4.65630597 -0.84560742 -1.20518260
| 47> C -5.50699684 -0.28397741 -0.18984785
| 48> C -6.77851184 -0.89860597 0.05657432
| 49> C -7.20021023 -1.99032406 -0.75127385
| 50> C -6.40613065 -2.45323057 -1.77750505
| 51> C -5.13498362 -1.88628635 -1.99618600
| 52> C -7.62085247 -0.40693407 1.09438040
| 53> C -7.24181515 0.68029694 1.85256518
| 54> C -6.02872145 1.34745240 1.58211824
| 55> C -5.18768490 0.88988133 0.57130775
| 56> O -4.07788127 1.60231033 0.26895772
| 57> H -5.75496233 2.23428649 2.14829737
| 58> H -6.73997817 -3.27568384 -2.40460058
| 59> H -4.49367385 -2.30143626 -2.77088012
| 60> H -7.88649324 1.04879118 2.64549994
| 61> H -8.57226112 -0.89954252 1.27467021
| 62> H -3.96647708 2.33747663 0.88546295
| 63> H 7.03737807 2.66135580 2.57648455
| 64> H -8.16836841 -2.44506698 -0.55532436
| 65> *
| 66> $new_job
| 67> #
| 68> !wB97X-D3 def2-TZVP def2/J RIJCOSX Grid5 FinalGrid6 TightSCF
| 69> %pal
| 70>  nprocs 24
| 71> end
| 72> %elprop
| 73>    dipole     true
| 74>    quadrupole true
| 75> end
| 76> %tddft
| 77>   Mode sTDDFT
| 78>   nroots 2
| 79>   Ethresh 10.0
| 80>   maxcore 5000
| 81> end
| 82> * xyz 0 1
| 83> C 5.00681833 -2.15092036 -1.68218372
| 84> C 4.33444629 -1.28655045 -0.82083735
| 85> C 5.06720429 -0.31553943 -0.11428416
| 86> C 6.48163321 -0.28551877 -0.27251355
| 87> C 7.16119109 -1.15127908 -1.14287826
| 88> C 6.40057861 -2.07894883 -1.85113489
| 89> C 4.73858754 0.70627132 0.86688050
| 90> C 5.97984897 1.27000382 1.28037740
| 91> N 7.00852280 0.68083143 0.56656927
| 92> C 6.07669990 2.24977540 2.28040568
| 93> C 4.89135571 2.66051400 2.88688010
| 94> C 3.65382273 2.13894607 2.48440616
| 95> C 3.53971884 1.17944979 1.46081029
| 96> H 2.74786571 2.51061587 2.95591089
| 97> H 7.99307627 0.88922777 0.67851184
| 98> H 4.92114438 3.40948347 3.67351854
| 99> H 3.26019721 -1.38289583 -0.69342592
|100> H 8.24156376 -1.10609530 -1.25161986
|101> H 6.89257840 -2.76725502 -2.53318143
|102> H 4.44499024 -2.90154174 -2.23138878
|103> N -2.36345840 -0.25421401 -0.45859697
|104> C -1.10419434 0.05455561 -0.96146749
|105> C -1.02585231 0.10784156 -2.34326044
|106> S -2.57752793 -0.24123087 -3.05368314
|107> C -3.25599792 -0.42428712 -1.40883643
|108> C 0.00136709 0.29408115 -0.04424900
|109> S 1.64414626 0.67549715 -0.61969708
|110> C 2.18769467 0.76259446 1.05590462
|111> C 1.10854582 0.52952697 1.88795806
|112> N -0.09239587 0.25506938 1.27506268
|113> H -0.14965659 0.33565644 -2.93745565
|114> H 1.17081581 0.52107954 2.97457988
|115> C -4.65630597 -0.84560742 -1.20518260
|116> C -5.50699684 -0.28397741 -0.18984785
|117> C -6.77851184 -0.89860597 0.05657432
|118> C -7.20021023 -1.99032406 -0.75127385
|119> C -6.40613065 -2.45323057 -1.77750505
|120> C -5.13498362 -1.88628635 -1.99618600
|121> C -7.62085247 -0.40693407 1.09438040
|122> C -7.24181515 0.68029694 1.85256518
|123> C -6.02872145 1.34745240 1.58211824
|124> C -5.18768490 0.88988133 0.57130775
|125> O -4.07788127 1.60231033 0.26895772
|126> H -5.75496233 2.23428649 2.14829737
|127> H -6.73997817 -3.27568384 -2.40460058
|128> H -4.49367385 -2.30143626 -2.77088012
|129> H -7.88649324 1.04879118 2.64549994
|130> H -8.57226112 -0.89954252 1.27467021
|131> H -3.96647708 2.33747663 0.88546295
|132> H 7.03737807 2.66135580 2.57648455
|133> H -8.16836841 -2.44506698 -0.55532436
|134> *
|135>
|136>                          ****END OF INPUT****
 Total Charge           Charge          ....    0
 Multiplicity           Mult            ....    1
 Number of Electrons    NEL             ....  246
Dispersion correction           -0.024625499
FINAL SINGLE POINT ENERGY     -2113.197900936688

CARTESIAN COORDINATES (ANGSTROEM)
---------------------------------
  C      5.006818   -2.150920   -1.682184
  C      4.334446   -1.286550   -0.820837
  C      5.067204   -0.315539   -0.114284
  C      6.481633   -0.285519   -0.272514
  C      7.161191   -1.151279   -1.142878
  C      6.400579   -2.078949   -1.851135
  C      4.738588    0.706271    0.866881
  C      5.979849    1.270004    1.280377
  N      7.008523    0.680831    0.566569
  C      6.076700    2.249775    2.280406
  C      4.891356    2.660514    2.886880
  C      3.653823    2.138946    2.484406
  C      3.539719    1.179450    1.460810
  H      2.747866    2.510616    2.955911
  H      7.993076    0.889228    0.678512
  H      4.921144    3.409483    3.673519
  H      3.260197   -1.382896   -0.693426
  H      8.241564   -1.106095   -1.251620
  H      6.892578   -2.767255   -2.533181
  H      4.444990   -2.901542   -2.231389
  N     -2.363458   -0.254214   -0.458597
  C     -1.104194    0.054556   -0.961467
  C     -1.025852    0.107842   -2.343260
  S     -2.577528   -0.241231   -3.053683
  C     -3.255998   -0.424287   -1.408836
  C      0.001367    0.294081   -0.044249
  S      1.644146    0.675497   -0.619697
  C      2.187695    0.762594    1.055905
  C      1.108546    0.529527    1.887958
  N     -0.092396    0.255069    1.275063
  H     -0.149657    0.335656   -2.937456
  H      1.170816    0.521080    2.974580
  C     -4.656306   -0.845607   -1.205183
  C     -5.506997   -0.283977   -0.189848
  C     -6.778512   -0.898606    0.056574
  C     -7.200210   -1.990324   -0.751274
  C     -6.406131   -2.453231   -1.777505
  C     -5.134984   -1.886286   -1.996186
  C     -7.620852   -0.406934    1.094380
  C     -7.241815    0.680297    1.852565
  C     -6.028721    1.347452    1.582118
  C     -5.187685    0.889881    0.571308
  O     -4.077881    1.602310    0.268958
  H     -5.754962    2.234286    2.148297
  H     -6.739978   -3.275684   -2.404601
  H     -4.493674   -2.301436   -2.770880
  H     -7.886493    1.048791    2.645500
  H     -8.572261   -0.899543    1.274670
  H     -3.966477    2.337477    0.885463
  H      7.037378    2.661356    2.576485
  H     -8.168368   -2.445067   -0.555324

 Multiplicity           Mult            ....    1
 Number of Electrons    NEL             ....  246
 Basis Dimension        Dim             .... 1168

ORBITAL ENERGIES
----------------

  NO   OCC          E(Eh)            E(eV)
   0   2.0000     -88.988703     -2421.5057
   1   2.0000     -88.984479     -2421.3908
   2   2.0000     -19.259443      -524.0761
   3   2.0000     -14.468738      -393.7144
   4   2.0000     -14.423575      -392.4854
   5   2.0000     -14.422880      -392.4665
   6   2.0000     -10.357976      -281.8549
   7   2.0000     -10.356142      -281.8049
   8   2.0000     -10.353680      -281.7380
   9   2.0000     -10.331580      -281.1366
  10   2.0000     -10.329555      -281.0815
  11   2.0000     -10.326416      -280.9961
  12   2.0000     -10.324503      -280.9440
  13   2.0000     -10.321699      -280.8677
  14   2.0000     -10.313869      -280.6547
  15   2.0000     -10.311395      -280.5873
  16   2.0000     -10.310675      -280.5677
  17   2.0000     -10.305948      -280.4391
  18   2.0000     -10.302100      -280.3344
  19   2.0000     -10.295855      -280.1645
  20   2.0000     -10.294500      -280.1276
  21   2.0000     -10.292095      -280.0621
  22   2.0000     -10.290709      -280.0244
  23   2.0000     -10.290563      -280.0205
  24   2.0000     -10.290534      -280.0197
  25   2.0000     -10.289141      -279.9818
  26   2.0000     -10.288504      -279.9644
  27   2.0000     -10.286737      -279.9163
  28   2.0000     -10.285165      -279.8736
  29   2.0000     -10.284173      -279.8466
  30   2.0000     -10.282650      -279.8051
  31   2.0000     -10.281978      -279.7868
  32   2.0000     -10.278531      -279.6931
  33   2.0000     -10.275402      -279.6079
  34   2.0000      -8.085036      -220.0050
  35   2.0000      -8.081257      -219.9022
  36   2.0000      -6.038177      -164.3071
  37   2.0000      -6.034300      -164.2016
  38   2.0000      -6.034068      -164.1953
  39   2.0000      -6.032323      -164.1478
  40   2.0000      -6.030450      -164.0969
  41   2.0000      -6.028398      -164.0411
  42   2.0000      -1.182363       -32.1737
  43   2.0000      -1.105501       -30.0822
  44   2.0000      -1.083537       -29.4845
  45   2.0000      -1.064413       -28.9642
  46   2.0000      -0.998567       -27.1724
  47   2.0000      -0.977319       -26.5942
  48   2.0000      -0.965932       -26.2843
  49   2.0000      -0.947204       -25.7747
  50   2.0000      -0.919906       -25.0319
  51   2.0000      -0.915121       -24.9017
  52   2.0000      -0.907622       -24.6976
  53   2.0000      -0.897727       -24.4284
  54   2.0000      -0.887363       -24.1464
  55   2.0000      -0.868620       -23.6363
  56   2.0000      -0.866350       -23.5746
  57   2.0000      -0.850082       -23.1319
  58   2.0000      -0.840181       -22.8625
  59   2.0000      -0.836797       -22.7704
  60   2.0000      -0.812559       -22.1109
  61   2.0000      -0.765866       -20.8403
  62   2.0000      -0.755511       -20.5585
  63   2.0000      -0.741125       -20.1670
  64   2.0000      -0.732501       -19.9324
  65   2.0000      -0.724774       -19.7221
  66   2.0000      -0.720782       -19.6135
  67   2.0000      -0.713531       -19.4162
  68   2.0000      -0.694005       -18.8848
  69   2.0000      -0.682097       -18.5608
  70   2.0000      -0.668299       -18.1853
  71   2.0000      -0.646892       -17.6028
  72   2.0000      -0.640985       -17.4421
  73   2.0000      -0.635174       -17.2840
  74   2.0000      -0.623141       -16.9565
  75   2.0000      -0.621467       -16.9110
  76   2.0000      -0.612906       -16.6780
  77   2.0000      -0.609103       -16.5745
  78   2.0000      -0.594597       -16.1798
  79   2.0000      -0.580292       -15.7905
  80   2.0000      -0.566255       -15.4086
  81   2.0000      -0.562819       -15.3151
  82   2.0000      -0.557242       -15.1633
  83   2.0000      -0.555183       -15.1073
  84   2.0000      -0.546259       -14.8645
  85   2.0000      -0.539704       -14.6861
  86   2.0000      -0.537227       -14.6187
  87   2.0000      -0.534275       -14.5384
  88   2.0000      -0.532043       -14.4776
  89   2.0000      -0.530058       -14.4236
  90   2.0000      -0.525655       -14.3038
  91   2.0000      -0.521820       -14.1994
  92   2.0000      -0.510510       -13.8917
  93   2.0000      -0.509732       -13.8705
  94   2.0000      -0.505992       -13.7688
  95   2.0000      -0.495230       -13.4759
  96   2.0000      -0.489944       -13.3320
  97   2.0000      -0.476637       -12.9699
  98   2.0000      -0.473513       -12.8850
  99   2.0000      -0.467969       -12.7341
 100   2.0000      -0.466101       -12.6833
 101   2.0000      -0.464453       -12.6384
 102   2.0000      -0.462468       -12.5844
 103   2.0000      -0.450284       -12.2528
 104   2.0000      -0.445668       -12.1273
 105   2.0000      -0.442339       -12.0367
 106   2.0000      -0.439045       -11.9470
 107   2.0000      -0.433652       -11.8003
 108   2.0000      -0.433107       -11.7854
 109   2.0000      -0.423436       -11.5223
 110   2.0000      -0.390435       -10.6243
 111   2.0000      -0.381686       -10.3862
 112   2.0000      -0.378212       -10.2917
 113   2.0000      -0.369968       -10.0673
 114   2.0000      -0.365444        -9.9442
 115   2.0000      -0.355248        -9.6668
 116   2.0000      -0.350398        -9.5348
 117   2.0000      -0.338468        -9.2102
 118   2.0000      -0.335539        -9.1305
 119   2.0000      -0.308399        -8.3920
 120   2.0000      -0.297306        -8.0901
 121   2.0000      -0.286165        -7.7869
 122   2.0000      -0.277164        -7.5420
 123   0.0000      -0.003166        -0.0862
 124   0.0000       0.005970         0.1625
 125   0.0000       0.033060         0.8996
 126   0.0000       0.043425         1.1816
 127   0.0000       0.058604         1.5947

MULLIKEN ATOMIC CHARGES
-----------------------
   0 C :   -0.179615
   1 C :   -0.126290
   2 C :   -0.036877
   3 C :    0.168033
   4 C :   -0.234397
   5 C :   -0.077217
   6 C :   -0.045914
   7 C :    0.188398
   8 N :   -0.302382
   9 C :   -0.249388
  10 C :   -0.068645
  11 C :   -0.300900
  12 C :    0.225939
  13 H :    0.137733
  14 H :    0.236097
  15 H :    0.123791
  16 H :    0.149160
  17 H :    0.114082
  18 H :    0.122624
  19 H :    0.118998
  20 N :   -0.245441
  21 C :    0.061705
  22 C :   -0.232069
  23 S :    0.054619
  24 C :    0.255852
  25 C :    0.147783
  26 S :   -0.007058
  27 C :   -0.000718
  28 C :   -0.127164
  29 N :   -0.246862
  30 H :    0.169238
  31 H :    0.157467
  32 C :    0.077053
  33 C :   -0.079142
  34 C :    0.205412
  35 C :   -0.183186
  36 C :   -0.118715
  37 C :   -0.239340
  38 C :   -0.234381
  39 C :   -0.106791
  40 C :   -0.216292
  41 C :    0.184249
  42 O :   -0.410634
  43 H :    0.106055
  44 H :    0.124319
  45 H :    0.138673
  46 H :    0.123360
  47 H :    0.113727
  48 H :    0.327176
  49 H :    0.116810
  50 H :    0.121062
Sum of atomic charges:   -0.0000000

LOEWDIN ATOMIC CHARGES
----------------------
   0 C :   -0.159359
   1 C :   -0.112363
   2 C :   -0.084229
   3 C :   -0.145201
   4 C :   -0.133399
   5 C :   -0.141951
   6 C :   -0.047405
   7 C :   -0.143893
   8 N :    0.200532
   9 C :   -0.129278
  10 C :   -0.141409
  11 C :   -0.115895
  12 C :   -0.108559
  13 H :    0.150493
  14 H :    0.193045
  15 H :    0.146444
  16 H :    0.142435
  17 H :    0.142968
  18 H :    0.144608
  19 H :    0.143810
  20 N :    0.172375
  21 C :   -0.281553
  22 C :   -0.368830
  23 S :    0.691228
  24 C :   -0.361541
  25 C :   -0.384428
  26 S :    0.728124
  27 C :   -0.322441
  28 C :   -0.228053
  29 N :    0.125267
  30 H :    0.131557
  31 H :    0.143625
  32 C :   -0.099927
  33 C :   -0.027621
  34 C :   -0.085042
  35 C :   -0.091353
  36 C :   -0.138925
  37 C :   -0.106079
  38 C :   -0.124881
  39 C :   -0.140618
  40 C :   -0.148874
  41 C :   -0.216621
  42 O :    0.115672
  43 H :    0.142040
  44 H :    0.147359
  45 H :    0.148632
  46 H :    0.146211
  47 H :    0.146533
  48 H :    0.192906
  49 H :    0.143776
  50 H :    0.150088

  Mayer bond orders larger than 0.1
B(  0-C ,  1-C ) :   1.5249 B(  0-C ,  5-C ) :   1.3627 B(  0-C , 19-H ) :   0.9837
B(  1-C ,  2-C ) :   1.2727 B(  1-C , 16-H ) :   0.9309 B(  2-C ,  3-C ) :   1.3820
B(  2-C ,  6-C ) :   1.0867 B(  3-C ,  4-C ) :   1.3135 B(  3-C ,  8-N ) :   1.1198
B(  4-C ,  5-C ) :   1.4835 B(  4-C , 17-H ) :   0.9745 B(  5-C , 18-H ) :   0.9802
B(  6-C ,  7-C ) :   1.3345 B(  6-C , 12-C ) :   1.2084 B(  7-C ,  8-N ) :   1.1500
B(  7-C ,  9-C ) :   1.2816 B(  8-N , 14-H ) :   0.9134 B(  9-C , 10-C ) :   1.4680
B(  9-C , 49-H ) :   0.9781 B( 10-C , 11-C ) :   1.3933 B( 10-C , 15-H ) :   0.9809
B( 11-C , 12-C ) :   1.4421 B( 11-C , 13-H ) :   0.9618 B( 12-C , 27-C ) :   0.8104
B( 20-N , 21-C ) :   1.2718 B( 20-N , 24-C ) :   1.6140 B( 21-C , 22-C ) :   1.6559
B( 21-C , 25-C ) :   0.9792 B( 22-C , 23-S ) :   1.2785 B( 22-C , 30-H ) :   0.9311
B( 23-S , 24-C ) :   1.2441 B( 24-C , 32-C ) :   0.8439 B( 25-C , 26-S ) :   1.2909
B( 25-C , 29-N ) :   1.6368 B( 26-S , 27-C ) :   1.2057 B( 26-S , 28-C ) :   0.1007
B( 27-C , 28-C ) :   1.6193 B( 28-C , 29-N ) :   1.3219 B( 28-C , 31-H ) :   0.9639
B( 32-C , 33-C ) :   1.1861 B( 32-C , 37-C ) :   1.4709 B( 33-C , 34-C ) :   1.3090
B( 33-C , 41-C ) :   1.2457 B( 34-C , 35-C ) :   1.2048 B( 34-C , 38-C ) :   1.2230
B( 35-C , 36-C ) :   1.5315 B( 35-C , 50-H ) :   0.9840 B( 36-C , 37-C ) :   1.2956
B( 36-C , 44-H ) :   0.9925 B( 37-C , 45-H ) :   0.9570 B( 38-C , 39-C ) :   1.5544
B( 38-C , 47-H ) :   0.9847 B( 39-C , 40-C ) :   1.2918 B( 39-C , 46-H ) :   0.9761
B( 40-C , 41-C ) :   1.4936 B( 40-C , 43-H ) :   0.9642 B( 41-C , 42-O ) :   1.1764
B( 42-O , 48-H ) :   0.8722

Dispersion correction           -0.024625499
FINAL SINGLE POINT ENERGY     -2113.197900896401

DIPOLE MOMENT
-------------
                                X             Y             Z
Electronic contribution:     -1.30361       2.60532      -6.23751
Nuclear contribution   :      2.13584      -2.01449       6.15383
                        -----------------------------------------
Total Dipole Moment    :      0.83223       0.59083      -0.08368
                        -----------------------------------------
Magnitude (a.u.)       :      1.02405
Magnitude (Debye)      :      2.60294

                             ****ORCA TERMINATED NORMALLY****
TOTAL RUN TIME: 0 days 0 hours 14 minutes 5 seconds 506 msec
