                         Program Version 4.0.0 -  RELEASE  -
|  1> #
|  2> !wB97X-D3 def2-TZVP def2/J RIJCOSX Grid5 FinalGrid6 TightSCF
|  3> %pal
|  4>  nprocs 24
|  5> end
|  6> %tddft
|  7>   Mode sTDDFT
|  8>   nroots 2
|  9>   Ethresh 10.0
| 10>   maxcore 5000
| 11>   triplets true
| 12> end
| 13> * xyz 0 1
| 14> C -5.59848845 -2.23146185 -0.92285317
| 15> C -4.61338639 -1.31115189 -0.57373348
| 16> C -4.98313855 -0.13691680 0.10961664
| 17> C -6.35555864 0.05052116 0.43726763
| 18> C -7.35086509 -0.87247752 0.08156584
| 19> C -6.95116158 -2.01492368 -0.60685763
| 20> C -4.26891520 1.00980986 0.65060198
| 21> C -5.25107998 1.81497727 1.29978178
| 22> N -6.49478620 1.23268026 1.14315503
| 23> C -4.93884173 2.99372487 1.99342948
| 24> C -3.59831535 3.36845858 2.04840932
| 25> C -2.61096325 2.60286657 1.41456851
| 26> C -2.91304238 1.43253996 0.69318747
| 27> H -1.57761239 2.93620780 1.45797160
| 28> H -7.36264236 1.59552918 1.51805037
| 29> H -3.31152040 4.27011074 2.58194655
| 30> H -3.57747536 -1.51133697 -0.82683328
| 31> H -8.39264068 -0.70328133 0.34039460
| 32> H -7.69351574 -2.75309709 -0.89833815
| 33> H -5.31731551 -3.13811150 -1.45130449
| 34> C 3.67217828 -0.81791289 -0.94622708
| 35> N 3.15195051 -1.45900208 -2.00453966
| 36> O 1.81236516 -1.22663942 -1.99034900
| 37> C 1.49251191 -0.45265323 -0.94188507
| 38> C 2.63590182 -0.15217570 -0.22816242
| 39> C 0.09734547 -0.08495207 -0.74297041
| 40> N -0.87564705 -0.48960840 -1.57270621
| 41> O -2.03613377 0.02852641 -1.09020432
| 42> C -1.80639271 0.74236476 0.02210675
| 43> C -0.45085182 0.72012209 0.29680468
| 44> H 0.06815858 1.18384237 1.12295422
| 45> H 2.71701610 0.44820709 0.66488538
| 46> C 7.34620263 -1.67922814 -1.31055254
| 47> C 7.91104493 -1.01580749 -0.20896462
| 48> C 7.08757048 -0.28507866 0.65470070
| 49> C 5.70340574 -0.20536637 0.43584924
| 50> C 5.11664631 -0.86649309 -0.66765410
| 51> C 5.96785229 -1.59628309 -1.52328592
| 52> O 4.97251584 0.52665422 1.32374828
| 53> O 7.62960897 0.37578587 1.74703703
| 54> O 9.26087134 -1.05353626 0.06265812
| 55> H 5.53073232 -2.10855466 -2.37413982
| 56> H 5.59302825 0.87650988 1.98313864
| 57> H 8.58516636 0.20862147 1.73513885
| 58> H 9.71397614 -1.58712260 -0.60391541
| 59> H -5.71224761 3.58417261 2.47643758
| 60> H 7.97658874 -2.24906024 -1.98692948
| 61> *
| 62> $new_job
| 63> #
| 64> !wB97X-D3 def2-TZVP def2/J RIJCOSX Grid5 FinalGrid6 TightSCF
| 65> %pal
| 66>  nprocs 24
| 67> end
| 68> %elprop
| 69>    dipole     true
| 70>    quadrupole true
| 71> end
| 72> %tddft
| 73>   Mode sTDDFT
| 74>   nroots 2
| 75>   Ethresh 10.0
| 76>   maxcore 5000
| 77> end
| 78> * xyz 0 1
| 79> C -5.59848845 -2.23146185 -0.92285317
| 80> C -4.61338639 -1.31115189 -0.57373348
| 81> C -4.98313855 -0.13691680 0.10961664
| 82> C -6.35555864 0.05052116 0.43726763
| 83> C -7.35086509 -0.87247752 0.08156584
| 84> C -6.95116158 -2.01492368 -0.60685763
| 85> C -4.26891520 1.00980986 0.65060198
| 86> C -5.25107998 1.81497727 1.29978178
| 87> N -6.49478620 1.23268026 1.14315503
| 88> C -4.93884173 2.99372487 1.99342948
| 89> C -3.59831535 3.36845858 2.04840932
| 90> C -2.61096325 2.60286657 1.41456851
| 91> C -2.91304238 1.43253996 0.69318747
| 92> H -1.57761239 2.93620780 1.45797160
| 93> H -7.36264236 1.59552918 1.51805037
| 94> H -3.31152040 4.27011074 2.58194655
| 95> H -3.57747536 -1.51133697 -0.82683328
| 96> H -8.39264068 -0.70328133 0.34039460
| 97> H -7.69351574 -2.75309709 -0.89833815
| 98> H -5.31731551 -3.13811150 -1.45130449
| 99> C 3.67217828 -0.81791289 -0.94622708
|100> N 3.15195051 -1.45900208 -2.00453966
|101> O 1.81236516 -1.22663942 -1.99034900
|102> C 1.49251191 -0.45265323 -0.94188507
|103> C 2.63590182 -0.15217570 -0.22816242
|104> C 0.09734547 -0.08495207 -0.74297041
|105> N -0.87564705 -0.48960840 -1.57270621
|106> O -2.03613377 0.02852641 -1.09020432
|107> C -1.80639271 0.74236476 0.02210675
|108> C -0.45085182 0.72012209 0.29680468
|109> H 0.06815858 1.18384237 1.12295422
|110> H 2.71701610 0.44820709 0.66488538
|111> C 7.34620263 -1.67922814 -1.31055254
|112> C 7.91104493 -1.01580749 -0.20896462
|113> C 7.08757048 -0.28507866 0.65470070
|114> C 5.70340574 -0.20536637 0.43584924
|115> C 5.11664631 -0.86649309 -0.66765410
|116> C 5.96785229 -1.59628309 -1.52328592
|117> O 4.97251584 0.52665422 1.32374828
|118> O 7.62960897 0.37578587 1.74703703
|119> O 9.26087134 -1.05353626 0.06265812
|120> H 5.53073232 -2.10855466 -2.37413982
|121> H 5.59302825 0.87650988 1.98313864
|122> H 8.58516636 0.20862147 1.73513885
|123> H 9.71397614 -1.58712260 -0.60391541
|124> H -5.71224761 3.58417261 2.47643758
|125> H 7.97658874 -2.24906024 -1.98692948
|126> *
|127>
|128>                          ****END OF INPUT****
 Total Charge           Charge          ....    0
 Multiplicity           Mult            ....    1
 Number of Electrons    NEL             ....  220
Dispersion correction           -0.020346177
FINAL SINGLE POINT ENERGY     -1464.011807594319

CARTESIAN COORDINATES (ANGSTROEM)
---------------------------------
  C     -5.598488   -2.231462   -0.922853
  C     -4.613386   -1.311152   -0.573733
  C     -4.983139   -0.136917    0.109617
  C     -6.355559    0.050521    0.437268
  C     -7.350865   -0.872478    0.081566
  C     -6.951162   -2.014924   -0.606858
  C     -4.268915    1.009810    0.650602
  C     -5.251080    1.814977    1.299782
  N     -6.494786    1.232680    1.143155
  C     -4.938842    2.993725    1.993429
  C     -3.598315    3.368459    2.048409
  C     -2.610963    2.602867    1.414569
  C     -2.913042    1.432540    0.693187
  H     -1.577612    2.936208    1.457972
  H     -7.362642    1.595529    1.518050
  H     -3.311520    4.270111    2.581947
  H     -3.577475   -1.511337   -0.826833
  H     -8.392641   -0.703281    0.340395
  H     -7.693516   -2.753097   -0.898338
  H     -5.317316   -3.138111   -1.451304
  C      3.672178   -0.817913   -0.946227
  N      3.151951   -1.459002   -2.004540
  O      1.812365   -1.226639   -1.990349
  C      1.492512   -0.452653   -0.941885
  C      2.635902   -0.152176   -0.228162
  C      0.097345   -0.084952   -0.742970
  N     -0.875647   -0.489608   -1.572706
  O     -2.036134    0.028526   -1.090204
  C     -1.806393    0.742365    0.022107
  C     -0.450852    0.720122    0.296805
  H      0.068159    1.183842    1.122954
  H      2.717016    0.448207    0.664885
  C      7.346203   -1.679228   -1.310553
  C      7.911045   -1.015807   -0.208965
  C      7.087570   -0.285079    0.654701
  C      5.703406   -0.205366    0.435849
  C      5.116646   -0.866493   -0.667654
  C      5.967852   -1.596283   -1.523286
  O      4.972516    0.526654    1.323748
  O      7.629609    0.375786    1.747037
  O      9.260871   -1.053536    0.062658
  H      5.530732   -2.108555   -2.374140
  H      5.593028    0.876510    1.983139
  H      8.585166    0.208621    1.735139
  H      9.713976   -1.587123   -0.603915
  H     -5.712248    3.584173    2.476438
  H      7.976589   -2.249060   -1.986929

 Multiplicity           Mult            ....    1
 Number of Electrons    NEL             ....  220
 Basis Dimension        Dim             .... 1082

ORBITAL ENERGIES
----------------

  NO   OCC          E(Eh)            E(eV)
   0   2.0000     -19.334538      -526.1195
   1   2.0000     -19.324990      -525.8597
   2   2.0000     -19.289975      -524.9069
   3   2.0000     -19.281347      -524.6721
   4   2.0000     -19.276782      -524.5479
   5   2.0000     -14.477707      -393.9584
   6   2.0000     -14.470595      -393.7649
   7   2.0000     -14.467837      -393.6899
   8   2.0000     -10.365321      -282.0547
   9   2.0000     -10.362929      -281.9896
  10   2.0000     -10.362415      -281.9756
  11   2.0000     -10.360271      -281.9173
  12   2.0000     -10.352222      -281.6983
  13   2.0000     -10.340059      -281.3673
  14   2.0000     -10.334045      -281.2037
  15   2.0000     -10.328896      -281.0636
  16   2.0000     -10.326880      -281.0087
  17   2.0000     -10.317818      -280.7621
  18   2.0000     -10.304753      -280.4066
  19   2.0000     -10.303615      -280.3756
  20   2.0000     -10.297637      -280.2130
  21   2.0000     -10.297183      -280.2006
  22   2.0000     -10.294808      -280.1360
  23   2.0000     -10.293356      -280.0965
  24   2.0000     -10.292159      -280.0639
  25   2.0000     -10.292072      -280.0615
  26   2.0000     -10.290780      -280.0263
  27   2.0000     -10.289934      -280.0033
  28   2.0000     -10.285713      -279.8885
  29   2.0000     -10.284360      -279.8517
  30   2.0000     -10.281236      -279.7666
  31   2.0000     -10.272772      -279.5363
  32   2.0000      -1.283370       -34.9223
  33   2.0000      -1.272293       -34.6208
  34   2.0000      -1.212700       -32.9992
  35   2.0000      -1.196816       -32.5670
  36   2.0000      -1.173682       -31.9375
  37   2.0000      -1.108038       -30.1512
  38   2.0000      -1.009107       -27.4592
  39   2.0000      -0.993155       -27.0251
  40   2.0000      -0.981567       -26.7098
  41   2.0000      -0.965513       -26.2729
  42   2.0000      -0.962682       -26.1959
  43   2.0000      -0.934687       -25.4341
  44   2.0000      -0.910079       -24.7645
  45   2.0000      -0.902459       -24.5572
  46   2.0000      -0.873108       -23.7585
  47   2.0000      -0.869790       -23.6682
  48   2.0000      -0.865577       -23.5536
  49   2.0000      -0.846674       -23.0392
  50   2.0000      -0.841336       -22.8939
  51   2.0000      -0.777505       -21.1570
  52   2.0000      -0.773234       -21.0408
  53   2.0000      -0.768111       -20.9014
  54   2.0000      -0.745809       -20.2945
  55   2.0000      -0.736061       -20.0292
  56   2.0000      -0.724350       -19.7106
  57   2.0000      -0.715287       -19.4639
  58   2.0000      -0.712923       -19.3996
  59   2.0000      -0.701605       -19.0916
  60   2.0000      -0.684014       -18.6130
  61   2.0000      -0.681008       -18.5312
  62   2.0000      -0.663378       -18.0514
  63   2.0000      -0.644377       -17.5344
  64   2.0000      -0.628679       -17.1072
  65   2.0000      -0.616604       -16.7787
  66   2.0000      -0.615756       -16.7556
  67   2.0000      -0.606513       -16.5040
  68   2.0000      -0.602085       -16.3836
  69   2.0000      -0.598733       -16.2924
  70   2.0000      -0.591835       -16.1046
  71   2.0000      -0.583256       -15.8712
  72   2.0000      -0.568374       -15.4662
  73   2.0000      -0.564305       -15.3555
  74   2.0000      -0.563427       -15.3316
  75   2.0000      -0.561398       -15.2764
  76   2.0000      -0.556234       -15.1359
  77   2.0000      -0.548223       -14.9179
  78   2.0000      -0.539554       -14.6820
  79   2.0000      -0.532028       -14.4772
  80   2.0000      -0.530473       -14.4349
  81   2.0000      -0.526063       -14.3149
  82   2.0000      -0.523750       -14.2520
  83   2.0000      -0.514360       -13.9964
  84   2.0000      -0.514131       -13.9902
  85   2.0000      -0.501721       -13.6525
  86   2.0000      -0.491137       -13.3645
  87   2.0000      -0.487611       -13.2686
  88   2.0000      -0.480931       -13.0868
  89   2.0000      -0.473202       -12.8765
  90   2.0000      -0.468763       -12.7557
  91   2.0000      -0.468247       -12.7417
  92   2.0000      -0.466045       -12.6817
  93   2.0000      -0.464993       -12.6531
  94   2.0000      -0.448454       -12.2030
  95   2.0000      -0.445786       -12.1305
  96   2.0000      -0.442690       -12.0462
  97   2.0000      -0.435053       -11.8384
  98   2.0000      -0.423899       -11.5349
  99   2.0000      -0.409571       -11.1450
 100   2.0000      -0.396271       -10.7831
 101   2.0000      -0.395820       -10.7708
 102   2.0000      -0.391042       -10.6408
 103   2.0000      -0.371036       -10.0964
 104   2.0000      -0.338185        -9.2025
 105   2.0000      -0.331286        -9.0148
 106   2.0000      -0.313735        -8.5372
 107   2.0000      -0.304390        -8.2829
 108   2.0000      -0.300996        -8.1905
 109   2.0000      -0.289843        -7.8870
 110   0.0000       0.001487         0.0405
 111   0.0000       0.021855         0.5947
 112   0.0000       0.047833         1.3016
 113   0.0000       0.052414         1.4262
 114   0.0000       0.069163         1.8820

MULLIKEN ATOMIC CHARGES
-----------------------
   0 C :   -0.177328
   1 C :   -0.129944
   2 C :   -0.044201
   3 C :    0.167981
   4 C :   -0.237224
   5 C :   -0.076339
   6 C :   -0.023724
   7 C :    0.179311
   8 N :   -0.303316
   9 C :   -0.226534
  10 C :   -0.089422
  11 C :   -0.283832
  12 C :    0.075449
  13 H :    0.121288
  14 H :    0.236913
  15 H :    0.124738
  16 H :    0.155385
  17 H :    0.114677
  18 H :    0.122555
  19 H :    0.121542
  20 C :    0.326272
  21 N :   -0.156698
  22 O :   -0.106735
  23 C :    0.216027
  24 C :   -0.304579
  25 C :    0.144763
  26 N :   -0.160421
  27 O :   -0.131033
  28 C :    0.294848
  29 C :   -0.271043
  30 H :    0.164361
  31 H :    0.172984
  32 C :   -0.213005
  33 C :    0.268824
  34 C :    0.113666
  35 C :    0.146427
  36 C :   -0.143569
  37 C :   -0.240914
  38 O :   -0.438425
  39 O :   -0.479590
  40 O :   -0.472877
  41 H :    0.159021
  42 H :    0.344503
  43 H :    0.351627
  44 H :    0.343405
  45 H :    0.119811
  46 H :    0.124378
Sum of atomic charges:   -0.0000000

LOEWDIN ATOMIC CHARGES
----------------------
   0 C :   -0.155845
   1 C :   -0.095257
   2 C :   -0.080430
   3 C :   -0.144745
   4 C :   -0.134714
   5 C :   -0.138997
   6 C :   -0.034087
   7 C :   -0.143347
   8 N :    0.201470
   9 C :   -0.121851
  10 C :   -0.141561
  11 C :   -0.108754
  12 C :   -0.081515
  13 H :    0.149854
  14 H :    0.193617
  15 H :    0.147194
  16 H :    0.152993
  17 H :    0.142910
  18 H :    0.144907
  19 H :    0.145103
  20 C :   -0.205612
  21 N :    0.036152
  22 O :    0.312168
  23 C :   -0.222546
  24 C :   -0.117681
  25 C :   -0.226819
  26 N :    0.045863
  27 O :    0.309010
  28 C :   -0.199816
  29 C :   -0.120027
  30 H :    0.148930
  31 H :    0.150323
  32 C :   -0.155435
  33 C :   -0.251464
  34 C :   -0.232456
  35 C :   -0.200212
  36 C :   -0.105578
  37 C :   -0.087879
  38 O :    0.088011
  39 O :    0.038484
  40 O :    0.049906
  41 H :    0.159311
  42 H :    0.201727
  43 H :    0.201693
  44 H :    0.197826
  45 H :    0.145157
  46 H :    0.144020

  Mayer bond orders larger than 0.1
B(  0-C ,  1-C ) :   1.5337 B(  0-C ,  5-C ) :   1.3529 B(  0-C , 19-H ) :   0.9876
B(  1-C ,  2-C ) :   1.2723 B(  1-C , 16-H ) :   0.9339 B(  2-C ,  3-C ) :   1.3641
B(  2-C ,  6-C ) :   1.0684 B(  3-C ,  4-C ) :   1.3060 B(  3-C ,  8-N ) :   1.1169
B(  4-C ,  5-C ) :   1.4798 B(  4-C , 17-H ) :   0.9761 B(  5-C , 18-H ) :   0.9818
B(  6-C ,  7-C ) :   1.3278 B(  6-C , 12-C ) :   1.2489 B(  7-C ,  8-N ) :   1.1563
B(  7-C ,  9-C ) :   1.2878 B(  8-N , 14-H ) :   0.9126 B(  9-C , 10-C ) :   1.4603
B(  9-C , 45-H ) :   0.9745 B( 10-C , 11-C ) :   1.4061 B( 10-C , 15-H ) :   0.9848
B( 11-C , 12-C ) :   1.4338 B( 11-C , 13-H ) :   0.9733 B( 12-C , 28-C ) :   0.9679
B( 20-C , 21-N ) :   1.6461 B( 20-C , 24-C ) :   1.2637 B( 20-C , 36-C ) :   0.9409
B( 21-N , 22-O ) :   0.9935 B( 21-N , 23-C ) :   0.1158 B( 22-O , 23-C ) :   1.2261
B( 23-C , 24-C ) :   1.5750 B( 23-C , 25-C ) :   0.9879 B( 24-C , 31-H ) :   0.9164
B( 25-C , 26-N ) :   1.6540 B( 25-C , 29-C ) :   1.2876 B( 26-N , 27-O ) :   0.9822
B( 26-N , 28-C ) :   0.1242 B( 27-O , 28-C ) :   1.1703 B( 28-C , 29-C ) :   1.6015
B( 29-C , 30-H ) :   0.9233 B( 32-C , 33-C ) :   1.3233 B( 32-C , 37-C ) :   1.5007
B( 32-C , 46-H ) :   0.9472 B( 33-C , 34-C ) :   1.3618 B( 33-C , 40-O ) :   1.0407
B( 34-C , 35-C ) :   1.4158 B( 34-C , 39-O ) :   1.0668 B( 35-C , 36-C ) :   1.3915
B( 35-C , 38-O ) :   1.1172 B( 36-C , 37-C ) :   1.4284 B( 37-C , 41-H ) :   0.9380
B( 38-O , 42-H ) :   0.8546 B( 39-O , 43-H ) :   0.8589 B( 40-O , 44-H ) :   0.8737

Dispersion correction           -0.020346177
FINAL SINGLE POINT ENERGY     -1464.011807578658

DIPOLE MOMENT
-------------
                                X             Y             Z
Electronic contribution:      6.44281      -0.59462      -3.96528
Nuclear contribution   :     -5.89689       1.57599       5.70060
                        -----------------------------------------
Total Dipole Moment    :      0.54593       0.98138       1.73532
                        -----------------------------------------
Magnitude (a.u.)       :      2.06699
Magnitude (Debye)      :      5.25388

                             ****ORCA TERMINATED NORMALLY****
TOTAL RUN TIME: 0 days 0 hours 7 minutes 34 seconds 145 msec
