                         Program Version 4.0.0 -  RELEASE  -
|  1> #
|  2> !wB97X-D3 def2-TZVP def2/J RIJCOSX Grid5 FinalGrid6 TightSCF
|  3> %pal
|  4>  nprocs 24
|  5> end
|  6> %tddft
|  7>   Mode sTDDFT
|  8>   nroots 2
|  9>   Ethresh 10.0
| 10>   maxcore 5000
| 11>   triplets true
| 12> end
| 13> * xyz 0 1
| 14> C -4.32744564 2.02714822 -2.71862287
| 15> C -3.91599245 1.12335315 -1.74250312
| 16> C -4.87887837 0.31813315 -1.10467227
| 17> C -6.24345687 0.47012901 -1.47953224
| 18> C -6.65993854 1.37514080 -2.46782897
| 19> C -5.68004115 2.15060069 -3.08226353
| 20> C -4.84731158 -0.68794962 -0.05429034
| 21> C -6.20376915 -1.07488797 0.15993357
| 22> N -7.02000233 -0.38276959 -0.71491916
| 23> C -6.59204159 -2.00183803 1.13832803
| 24> C -5.58926513 -2.54599206 1.93808875
| 25> C -4.24887837 -2.18502802 1.75401215
| 26> C -3.83946477 -1.27597808 0.75923215
| 27> H -3.49234018 -2.64290769 2.38724528
| 28> H -8.02835365 -0.46247569 -0.76205870
| 29> H -5.84585254 -3.26228047 2.71326181
| 30> H -2.86433448 1.04267548 -1.48367138
| 31> H -7.70827764 1.46928931 -2.73819948
| 32> H -5.96432108 2.86297730 -3.85223957
| 33> H -3.58796233 2.64996899 -3.21453030
| 34> S 2.65591877 -0.15175850 0.02559012
| 35> C 1.39483391 -0.62533669 1.17801057
| 36> N 1.86076555 -0.87213378 2.39686969
| 37> N 3.21112498 -0.71050298 2.50819195
| 38> C 3.79191864 -0.33693476 1.37138745
| 39> C 0.00157341 -0.72664172 0.81087518
| 40> N -0.45794931 -0.48363004 -0.40995030
| 41> N -1.81152575 -0.64353394 -0.51975967
| 42> C -2.40670398 -1.00289033 0.60749372
| 43> S -1.26027257 -1.19431144 1.95847616
| 44> S 5.80961326 0.40037745 -0.39172052
| 45> C 7.53041010 0.51932247 0.09048981
| 46> S 7.82078259 0.11845269 1.81050189
| 47> C 6.14013919 -0.21983378 2.20466340
| 48> C 5.21123035 -0.09688957 1.21582931
| 49> C 8.52025087 0.87887070 -0.76535288
| 50> S 10.23808655 0.99730997 -0.28267389
| 51> C 10.82762460 1.49113723 -1.88104070
| 52> C 9.92263726 1.61749423 -2.87006746
| 53> S 8.22572134 1.27851181 -2.48277359
| 54> H 5.88310938 -0.51595522 3.21645459
| 55> H 10.17422776 1.91315943 -3.88281086
| 56> H -7.63479359 -2.27515386 1.27286529
| 57> H 11.88920451 1.67356176 -2.00801910
| 58> *
| 59> $new_job
| 60> #
| 61> !wB97X-D3 def2-TZVP def2/J RIJCOSX Grid5 FinalGrid6 TightSCF
| 62> %pal
| 63>  nprocs 24
| 64> end
| 65> %elprop
| 66>    dipole     true
| 67>    quadrupole true
| 68> end
| 69> %tddft
| 70>   Mode sTDDFT
| 71>   nroots 2
| 72>   Ethresh 10.0
| 73>   maxcore 5000
| 74> end
| 75> * xyz 0 1
| 76> C -4.32744564 2.02714822 -2.71862287
| 77> C -3.91599245 1.12335315 -1.74250312
| 78> C -4.87887837 0.31813315 -1.10467227
| 79> C -6.24345687 0.47012901 -1.47953224
| 80> C -6.65993854 1.37514080 -2.46782897
| 81> C -5.68004115 2.15060069 -3.08226353
| 82> C -4.84731158 -0.68794962 -0.05429034
| 83> C -6.20376915 -1.07488797 0.15993357
| 84> N -7.02000233 -0.38276959 -0.71491916
| 85> C -6.59204159 -2.00183803 1.13832803
| 86> C -5.58926513 -2.54599206 1.93808875
| 87> C -4.24887837 -2.18502802 1.75401215
| 88> C -3.83946477 -1.27597808 0.75923215
| 89> H -3.49234018 -2.64290769 2.38724528
| 90> H -8.02835365 -0.46247569 -0.76205870
| 91> H -5.84585254 -3.26228047 2.71326181
| 92> H -2.86433448 1.04267548 -1.48367138
| 93> H -7.70827764 1.46928931 -2.73819948
| 94> H -5.96432108 2.86297730 -3.85223957
| 95> H -3.58796233 2.64996899 -3.21453030
| 96> S 2.65591877 -0.15175850 0.02559012
| 97> C 1.39483391 -0.62533669 1.17801057
| 98> N 1.86076555 -0.87213378 2.39686969
| 99> N 3.21112498 -0.71050298 2.50819195
|100> C 3.79191864 -0.33693476 1.37138745
|101> C 0.00157341 -0.72664172 0.81087518
|102> N -0.45794931 -0.48363004 -0.40995030
|103> N -1.81152575 -0.64353394 -0.51975967
|104> C -2.40670398 -1.00289033 0.60749372
|105> S -1.26027257 -1.19431144 1.95847616
|106> S 5.80961326 0.40037745 -0.39172052
|107> C 7.53041010 0.51932247 0.09048981
|108> S 7.82078259 0.11845269 1.81050189
|109> C 6.14013919 -0.21983378 2.20466340
|110> C 5.21123035 -0.09688957 1.21582931
|111> C 8.52025087 0.87887070 -0.76535288
|112> S 10.23808655 0.99730997 -0.28267389
|113> C 10.82762460 1.49113723 -1.88104070
|114> C 9.92263726 1.61749423 -2.87006746
|115> S 8.22572134 1.27851181 -2.48277359
|116> H 5.88310938 -0.51595522 3.21645459
|117> H 10.17422776 1.91315943 -3.88281086
|118> H -7.63479359 -2.27515386 1.27286529
|119> H 11.88920451 1.67356176 -2.00801910
|120> *
|121>
|122>                          ****END OF INPUT****
 Total Charge           Charge          ....    0
 Multiplicity           Mult            ....    1
 Number of Electrons    NEL             ....  274
Dispersion correction           -0.019638280
FINAL SINGLE POINT ENERGY     -3507.921755026959

CARTESIAN COORDINATES (ANGSTROEM)
---------------------------------
  C     -4.327446    2.027148   -2.718623
  C     -3.915992    1.123353   -1.742503
  C     -4.878878    0.318133   -1.104672
  C     -6.243457    0.470129   -1.479532
  C     -6.659939    1.375141   -2.467829
  C     -5.680041    2.150601   -3.082264
  C     -4.847312   -0.687950   -0.054290
  C     -6.203769   -1.074888    0.159934
  N     -7.020002   -0.382770   -0.714919
  C     -6.592042   -2.001838    1.138328
  C     -5.589265   -2.545992    1.938089
  C     -4.248878   -2.185028    1.754012
  C     -3.839465   -1.275978    0.759232
  H     -3.492340   -2.642908    2.387245
  H     -8.028354   -0.462476   -0.762059
  H     -5.845853   -3.262280    2.713262
  H     -2.864334    1.042675   -1.483671
  H     -7.708278    1.469289   -2.738199
  H     -5.964321    2.862977   -3.852240
  H     -3.587962    2.649969   -3.214530
  S      2.655919   -0.151758    0.025590
  C      1.394834   -0.625337    1.178011
  N      1.860766   -0.872134    2.396870
  N      3.211125   -0.710503    2.508192
  C      3.791919   -0.336935    1.371387
  C      0.001573   -0.726642    0.810875
  N     -0.457949   -0.483630   -0.409950
  N     -1.811526   -0.643534   -0.519760
  C     -2.406704   -1.002890    0.607494
  S     -1.260273   -1.194311    1.958476
  S      5.809613    0.400377   -0.391721
  C      7.530410    0.519322    0.090490
  S      7.820783    0.118453    1.810502
  C      6.140139   -0.219834    2.204663
  C      5.211230   -0.096890    1.215829
  C      8.520251    0.878871   -0.765353
  S     10.238087    0.997310   -0.282674
  C     10.827625    1.491137   -1.881041
  C      9.922637    1.617494   -2.870067
  S      8.225721    1.278512   -2.482774
  H      5.883109   -0.515955    3.216455
  H     10.174228    1.913159   -3.882811
  H     -7.634794   -2.275154    1.272865
  H     11.889205    1.673562   -2.008019

 Multiplicity           Mult            ....    1
 Number of Electrons    NEL             ....  274
 Basis Dimension        Dim             .... 1125

ORBITAL ENERGIES
----------------

  NO   OCC          E(Eh)            E(eV)
   0   2.0000     -89.015828     -2422.2438
   1   2.0000     -89.009390     -2422.0686
   2   2.0000     -88.998812     -2421.7808
   3   2.0000     -88.994938     -2421.6754
   4   2.0000     -88.991411     -2421.5794
   5   2.0000     -88.991193     -2421.5735
   6   2.0000     -14.479245      -394.0003
   7   2.0000     -14.475007      -393.8850
   8   2.0000     -14.472644      -393.8207
   9   2.0000     -14.471995      -393.8030
  10   2.0000     -14.465818      -393.6349
  11   2.0000     -10.385908      -282.6149
  12   2.0000     -10.383596      -282.5520
  13   2.0000     -10.381217      -282.4873
  14   2.0000     -10.376556      -282.3604
  15   2.0000     -10.363708      -282.0108
  16   2.0000     -10.362720      -281.9839
  17   2.0000     -10.356040      -281.8022
  18   2.0000     -10.349170      -281.6152
  19   2.0000     -10.337619      -281.3009
  20   2.0000     -10.336806      -281.2788
  21   2.0000     -10.336047      -281.2581
  22   2.0000     -10.327139      -281.0157
  23   2.0000     -10.322208      -280.8815
  24   2.0000     -10.306510      -280.4544
  25   2.0000     -10.300782      -280.2985
  26   2.0000     -10.297389      -280.2062
  27   2.0000     -10.296396      -280.1792
  28   2.0000     -10.290098      -280.0078
  29   2.0000     -10.285378      -279.8794
  30   2.0000     -10.284444      -279.8540
  31   2.0000     -10.278487      -279.6918
  32   2.0000     -10.271790      -279.5096
  33   2.0000      -8.111925      -220.7367
  34   2.0000      -8.105608      -220.5648
  35   2.0000      -8.094948      -220.2747
  36   2.0000      -8.091424      -220.1789
  37   2.0000      -8.087780      -220.0797
  38   2.0000      -8.087555      -220.0735
  39   2.0000      -6.065021      -165.0376
  40   2.0000      -6.061084      -164.9305
  41   2.0000      -6.059021      -164.8743
  42   2.0000      -6.058692      -164.8654
  43   2.0000      -6.054778      -164.7589
  44   2.0000      -6.052693      -164.7021
  45   2.0000      -6.049083      -164.6039
  46   2.0000      -6.045645      -164.5104
  47   2.0000      -6.044670      -164.4838
  48   2.0000      -6.041980      -164.4106
  49   2.0000      -6.041762      -164.4047
  50   2.0000      -6.041424      -164.3955
  51   2.0000      -6.040455      -164.3691
  52   2.0000      -6.037569      -164.2906
  53   2.0000      -6.037330      -164.2841
  54   2.0000      -6.036477      -164.2609
  55   2.0000      -6.033107      -164.1692
  56   2.0000      -6.032895      -164.1634
  57   2.0000      -1.161282       -31.6001
  58   2.0000      -1.152088       -31.3499
  59   2.0000      -1.109127       -30.1809
  60   2.0000      -1.026781       -27.9401
  61   2.0000      -1.003645       -27.3106
  62   2.0000      -0.994968       -27.0745
  63   2.0000      -0.979991       -26.6669
  64   2.0000      -0.965323       -26.2678
  65   2.0000      -0.956274       -26.0216
  66   2.0000      -0.939254       -25.5584
  67   2.0000      -0.921229       -25.0679
  68   2.0000      -0.911175       -24.7943
  69   2.0000      -0.903170       -24.5765
  70   2.0000      -0.893046       -24.3010
  71   2.0000      -0.879008       -23.9190
  72   2.0000      -0.876086       -23.8395
  73   2.0000      -0.848981       -23.1020
  74   2.0000      -0.848166       -23.0798
  75   2.0000      -0.842460       -22.9245
  76   2.0000      -0.790017       -21.4975
  77   2.0000      -0.776438       -21.1279
  78   2.0000      -0.760149       -20.6847
  79   2.0000      -0.748310       -20.3626
  80   2.0000      -0.728023       -19.8105
  81   2.0000      -0.725355       -19.7379
  82   2.0000      -0.714556       -19.4441
  83   2.0000      -0.698643       -19.0110
  84   2.0000      -0.688359       -18.7312
  85   2.0000      -0.667863       -18.1735
  86   2.0000      -0.657621       -17.8948
  87   2.0000      -0.650230       -17.6937
  88   2.0000      -0.631463       -17.1830
  89   2.0000      -0.626685       -17.0530
  90   2.0000      -0.619348       -16.8533
  91   2.0000      -0.614742       -16.7280
  92   2.0000      -0.601419       -16.3654
  93   2.0000      -0.580384       -15.7930
  94   2.0000      -0.576632       -15.6909
  95   2.0000      -0.571078       -15.5398
  96   2.0000      -0.561689       -15.2843
  97   2.0000      -0.555051       -15.1037
  98   2.0000      -0.549920       -14.9641
  99   2.0000      -0.545860       -14.8536
 100   2.0000      -0.544517       -14.8171
 101   2.0000      -0.539340       -14.6762
 102   2.0000      -0.531267       -14.4565
 103   2.0000      -0.527631       -14.3576
 104   2.0000      -0.524800       -14.2805
 105   2.0000      -0.524390       -14.2694
 106   2.0000      -0.521527       -14.1915
 107   2.0000      -0.520017       -14.1504
 108   2.0000      -0.503554       -13.7024
 109   2.0000      -0.492377       -13.3982
 110   2.0000      -0.484321       -13.1790
 111   2.0000      -0.478822       -13.0294
 112   2.0000      -0.477868       -13.0035
 113   2.0000      -0.473112       -12.8740
 114   2.0000      -0.469512       -12.7761
 115   2.0000      -0.450045       -12.2463
 116   2.0000      -0.448090       -12.1931
 117   2.0000      -0.447071       -12.1654
 118   2.0000      -0.438683       -11.9372
 119   2.0000      -0.434329       -11.8187
 120   2.0000      -0.425819       -11.5871
 121   2.0000      -0.419422       -11.4131
 122   2.0000      -0.413788       -11.2597
 123   2.0000      -0.404529       -11.0078
 124   2.0000      -0.404191       -10.9986
 125   2.0000      -0.397070       -10.8048
 126   2.0000      -0.390627       -10.6295
 127   2.0000      -0.383779       -10.4432
 128   2.0000      -0.380485       -10.3535
 129   2.0000      -0.377080       -10.2609
 130   2.0000      -0.372224       -10.1287
 131   2.0000      -0.361662        -9.8413
 132   2.0000      -0.341002        -9.2791
 133   2.0000      -0.321388        -8.7454
 134   2.0000      -0.301724        -8.2103
 135   2.0000      -0.291793        -7.9401
 136   2.0000      -0.257753        -7.0138
 137   0.0000      -0.038735        -1.0540
 138   0.0000      -0.002755        -0.0750
 139   0.0000       0.015439         0.4201
 140   0.0000       0.025417         0.6916
 141   0.0000       0.047929         1.3042

MULLIKEN ATOMIC CHARGES
-----------------------
   0 C :   -0.173136
   1 C :   -0.128979
   2 C :   -0.031734
   3 C :    0.172485
   4 C :   -0.239921
   5 C :   -0.078438
   6 C :   -0.022669
   7 C :    0.187440
   8 N :   -0.303858
   9 C :   -0.224605
  10 C :   -0.096695
  11 C :   -0.280505
  12 C :    0.118631
  13 H :    0.130665
  14 H :    0.237009
  15 H :    0.128150
  16 H :    0.155390
  17 H :    0.113971
  18 H :    0.121917
  19 H :    0.119446
  20 S :    0.076144
  21 C :    0.070162
  22 N :   -0.161992
  23 N :   -0.156048
  24 C :    0.219231
  25 C :    0.141272
  26 N :   -0.170293
  27 N :   -0.189846
  28 C :    0.166864
  29 S :    0.066320
  30 S :   -0.019126
  31 C :    0.066227
  32 S :    0.050538
  33 C :   -0.148385
  34 C :   -0.152670
  35 C :   -0.087346
  36 S :    0.019799
  37 C :   -0.182413
  38 C :   -0.189304
  39 S :    0.022572
  40 H :    0.195093
  41 H :    0.168871
  42 H :    0.121144
  43 H :    0.168621
Sum of atomic charges:   -0.0000000

LOEWDIN ATOMIC CHARGES
----------------------
   0 C :   -0.157518
   1 C :   -0.091667
   2 C :   -0.077969
   3 C :   -0.144333
   4 C :   -0.136106
   5 C :   -0.138650
   6 C :   -0.027852
   7 C :   -0.142988
   8 N :    0.201776
   9 C :   -0.117099
  10 C :   -0.141128
  11 C :   -0.122845
  12 C :   -0.116491
  13 H :    0.145520
  14 H :    0.193666
  15 H :    0.148108
  16 H :    0.153956
  17 H :    0.142673
  18 H :    0.144630
  19 H :    0.144191
  20 S :    0.739889
  21 C :   -0.456207
  22 N :    0.049592
  23 N :    0.041435
  24 C :   -0.442122
  25 C :   -0.461616
  26 N :    0.044426
  27 N :    0.048518
  28 C :   -0.372787
  29 S :    0.739290
  30 S :    0.634091
  31 C :   -0.631856
  32 S :    0.642678
  33 C :   -0.346645
  34 C :   -0.415543
  35 C :   -0.630505
  36 S :    0.611904
  37 C :   -0.421252
  38 C :   -0.421135
  39 S :    0.614851
  40 H :    0.150880
  41 H :    0.138220
  42 H :    0.145982
  43 H :    0.138035

  Mayer bond orders larger than 0.1
B(  0-C ,  1-C ) :   1.5355 B(  0-C ,  5-C ) :   1.3513 B(  0-C , 19-H ) :   0.9859
B(  1-C ,  2-C ) :   1.2716 B(  1-C , 16-H ) :   0.9368 B(  2-C ,  3-C ) :   1.3575
B(  2-C ,  6-C ) :   1.0882 B(  3-C ,  4-C ) :   1.3006 B(  3-C ,  8-N ) :   1.1140
B(  4-C ,  5-C ) :   1.4843 B(  4-C , 17-H ) :   0.9763 B(  5-C , 18-H ) :   0.9814
B(  6-C ,  7-C ) :   1.3223 B(  6-C , 12-C ) :   1.2468 B(  7-C ,  8-N ) :   1.1548
B(  7-C ,  9-C ) :   1.2877 B(  8-N , 14-H ) :   0.9128 B(  9-C , 10-C ) :   1.4687
B(  9-C , 42-H ) :   0.9722 B( 10-C , 11-C ) :   1.4246 B( 10-C , 15-H ) :   0.9790
B( 11-C , 12-C ) :   1.4021 B( 11-C , 13-H ) :   0.9589 B( 12-C , 28-C ) :   0.9506
B( 20-S , 21-C ) :   1.3013 B( 20-S , 24-C ) :   1.2899 B( 21-C , 22-N ) :   1.7098
B( 21-C , 25-C ) :   0.9504 B( 22-N , 23-N ) :   1.1684 B( 23-N , 24-C ) :   1.6735
B( 24-C , 30-S ) :  -0.1031 B( 24-C , 34-C ) :   0.9214 B( 25-C , 26-N ) :   1.6959
B( 25-C , 29-S ) :   1.3008 B( 26-N , 27-N ) :   1.1262 B( 27-N , 28-C ) :   1.6413
B( 28-C , 29-S ) :   1.2819 B( 30-S , 31-C ) :   1.1231 B( 30-S , 34-C ) :   1.1750
B( 31-C , 32-S ) :   1.0874 B( 31-C , 35-C ) :   1.5682 B( 32-S , 33-C ) :   1.1971
B( 33-C , 34-C ) :   1.7919 B( 33-C , 40-H ) :   0.9007 B( 35-C , 36-S ) :   1.1610
B( 35-C , 39-S ) :   1.1735 B( 36-S , 37-C ) :   1.1234 B( 37-C , 38-C ) :   1.8855
B( 37-C , 43-H ) :   0.9324 B( 38-C , 39-S ) :   1.1260 B( 38-C , 41-H ) :   0.9322

Dispersion correction           -0.019638280
FINAL SINGLE POINT ENERGY     -3507.921754944077

DIPOLE MOMENT
-------------
                                X             Y             Z
Electronic contribution:     32.75587      -2.20865       7.48990
Nuclear contribution   :    -33.23109       2.32018      -7.80516
                        -----------------------------------------
Total Dipole Moment    :     -0.47522       0.11153      -0.31527
                        -----------------------------------------
Magnitude (a.u.)       :      0.58109
Magnitude (Debye)      :      1.47701

                             ****ORCA TERMINATED NORMALLY****
TOTAL RUN TIME: 0 days 0 hours 12 minutes 46 seconds 128 msec
