                         Program Version 4.0.0 -  RELEASE  -
|  1> #
|  2> !wB97X-D3 def2-TZVP def2/J RIJCOSX Grid5 FinalGrid6 TightSCF
|  3> %pal
|  4>  nprocs 24
|  5> end
|  6> %tddft
|  7>   Mode sTDDFT
|  8>   nroots 2
|  9>   Ethresh 10.0
| 10>   maxcore 5000
| 11>   triplets true
| 12> end
| 13> * xyz 0 1
| 14> C 5.13153554 -0.14682593 -3.00853551
| 15> C 4.47524350 -0.33644034 -1.79517071
| 16> C 5.22414282 -0.70527686 -0.66139678
| 17> C 6.63205855 -0.85973718 -0.80145725
| 18> C 7.29494948 -0.67614319 -2.02462130
| 19> C 6.52214179 -0.31822533 -3.12629860
| 20> C 4.91660681 -0.95928439 0.73762606
| 21> C 6.16510479 -1.23562455 1.37044254
| 22> N 7.17536203 -1.18794844 0.42824314
| 23> C 6.28989517 -1.48616833 2.74481531
| 24> C 5.12734866 -1.44222770 3.51150519
| 25> C 3.88710508 -1.17161290 2.92037020
| 26> C 3.74102291 -0.94393519 1.53823911
| 27> H 2.99938673 -1.16130951 3.54873249
| 28> H 8.15933542 -1.33453093 0.61710701
| 29> H 5.17883187 -1.62290202 4.58130973
| 30> H 3.39924273 -0.20357057 -1.73143599
| 31> H 8.37109312 -0.80384102 -2.10566021
| 32> H 7.00020578 -0.16690956 -4.09051066
| 33> H 4.55783126 0.13685554 -3.88664514
| 34> S -2.37489211 -0.06835524 -0.86449398
| 35> C -3.70276878 0.58683136 0.11881043
| 36> N -3.31132994 0.87125367 1.35824018
| 37> N -2.00003549 0.60841692 1.61738229
| 38> C -1.35313483 0.11181743 0.57098389
| 39> C 0.04514624 -0.25097112 0.58066115
| 40> N 0.68196046 -0.75116632 -0.47036429
| 41> N 2.00082703 -1.01824619 -0.22650737
| 42> C 2.39335792 -0.72364925 1.00362288
| 43> S 1.07378781 -0.07122858 2.00781039
| 44> C -5.76386528 -0.11870888 -3.84569079
| 45> S -7.40463795 0.41467259 -3.53115280
| 46> C -6.98358056 0.82757374 -1.86733587
| 47> C -5.61069806 0.55071438 -1.59388193
| 48> C -4.95031969 0.00852010 -2.75929539
| 49> C -5.08479587 0.82054796 -0.29631598
| 50> C -5.98702119 1.35803237 0.65409843
| 51> C -7.35254275 1.62646304 0.35986051
| 52> C -7.85985004 1.35727984 -0.92136452
| 53> S -5.62066788 1.78658687 2.32310066
| 54> C -7.28082377 2.31154491 2.59555295
| 55> C -8.06407020 2.17108003 1.49179741
| 56> H -3.90625589 -0.27965791 -2.79568568
| 57> H -9.11497004 2.43827399 1.45779178
| 58> H -7.59770565 2.69792253 3.55662133
| 59> H -5.47623152 -0.50122613 -4.81705063
| 60> H 7.25686285 -1.69521455 3.19358895
| 61> H -8.90028888 1.55635083 -1.16314263
| 62> *
| 63> $new_job
| 64> #
| 65> !wB97X-D3 def2-TZVP def2/J RIJCOSX Grid5 FinalGrid6 TightSCF
| 66> %pal
| 67>  nprocs 24
| 68> end
| 69> %elprop
| 70>    dipole     true
| 71>    quadrupole true
| 72> end
| 73> %tddft
| 74>   Mode sTDDFT
| 75>   nroots 2
| 76>   Ethresh 10.0
| 77>   maxcore 5000
| 78> end
| 79> * xyz 0 1
| 80> C 5.13153554 -0.14682593 -3.00853551
| 81> C 4.47524350 -0.33644034 -1.79517071
| 82> C 5.22414282 -0.70527686 -0.66139678
| 83> C 6.63205855 -0.85973718 -0.80145725
| 84> C 7.29494948 -0.67614319 -2.02462130
| 85> C 6.52214179 -0.31822533 -3.12629860
| 86> C 4.91660681 -0.95928439 0.73762606
| 87> C 6.16510479 -1.23562455 1.37044254
| 88> N 7.17536203 -1.18794844 0.42824314
| 89> C 6.28989517 -1.48616833 2.74481531
| 90> C 5.12734866 -1.44222770 3.51150519
| 91> C 3.88710508 -1.17161290 2.92037020
| 92> C 3.74102291 -0.94393519 1.53823911
| 93> H 2.99938673 -1.16130951 3.54873249
| 94> H 8.15933542 -1.33453093 0.61710701
| 95> H 5.17883187 -1.62290202 4.58130973
| 96> H 3.39924273 -0.20357057 -1.73143599
| 97> H 8.37109312 -0.80384102 -2.10566021
| 98> H 7.00020578 -0.16690956 -4.09051066
| 99> H 4.55783126 0.13685554 -3.88664514
|100> S -2.37489211 -0.06835524 -0.86449398
|101> C -3.70276878 0.58683136 0.11881043
|102> N -3.31132994 0.87125367 1.35824018
|103> N -2.00003549 0.60841692 1.61738229
|104> C -1.35313483 0.11181743 0.57098389
|105> C 0.04514624 -0.25097112 0.58066115
|106> N 0.68196046 -0.75116632 -0.47036429
|107> N 2.00082703 -1.01824619 -0.22650737
|108> C 2.39335792 -0.72364925 1.00362288
|109> S 1.07378781 -0.07122858 2.00781039
|110> C -5.76386528 -0.11870888 -3.84569079
|111> S -7.40463795 0.41467259 -3.53115280
|112> C -6.98358056 0.82757374 -1.86733587
|113> C -5.61069806 0.55071438 -1.59388193
|114> C -4.95031969 0.00852010 -2.75929539
|115> C -5.08479587 0.82054796 -0.29631598
|116> C -5.98702119 1.35803237 0.65409843
|117> C -7.35254275 1.62646304 0.35986051
|118> C -7.85985004 1.35727984 -0.92136452
|119> S -5.62066788 1.78658687 2.32310066
|120> C -7.28082377 2.31154491 2.59555295
|121> C -8.06407020 2.17108003 1.49179741
|122> H -3.90625589 -0.27965791 -2.79568568
|123> H -9.11497004 2.43827399 1.45779178
|124> H -7.59770565 2.69792253 3.55662133
|125> H -5.47623152 -0.50122613 -4.81705063
|126> H 7.25686285 -1.69521455 3.19358895
|127> H -8.90028888 1.55635083 -1.16314263
|128> *
|129>
|130>                          ****END OF INPUT****
 Total Charge           Charge          ....    0
 Multiplicity           Mult            ....    1
 Number of Electrons    NEL             ....  268
Dispersion correction           -0.023260984
FINAL SINGLE POINT ENERGY     -2865.215383129329

CARTESIAN COORDINATES (ANGSTROEM)
---------------------------------
  C      5.131536   -0.146826   -3.008536
  C      4.475244   -0.336440   -1.795171
  C      5.224143   -0.705277   -0.661397
  C      6.632059   -0.859737   -0.801457
  C      7.294949   -0.676143   -2.024621
  C      6.522142   -0.318225   -3.126299
  C      4.916607   -0.959284    0.737626
  C      6.165105   -1.235625    1.370443
  N      7.175362   -1.187948    0.428243
  C      6.289895   -1.486168    2.744815
  C      5.127349   -1.442228    3.511505
  C      3.887105   -1.171613    2.920370
  C      3.741023   -0.943935    1.538239
  H      2.999387   -1.161310    3.548732
  H      8.159335   -1.334531    0.617107
  H      5.178832   -1.622902    4.581310
  H      3.399243   -0.203571   -1.731436
  H      8.371093   -0.803841   -2.105660
  H      7.000206   -0.166910   -4.090511
  H      4.557831    0.136856   -3.886645
  S     -2.374892   -0.068355   -0.864494
  C     -3.702769    0.586831    0.118810
  N     -3.311330    0.871254    1.358240
  N     -2.000035    0.608417    1.617382
  C     -1.353135    0.111817    0.570984
  C      0.045146   -0.250971    0.580661
  N      0.681960   -0.751166   -0.470364
  N      2.000827   -1.018246   -0.226507
  C      2.393358   -0.723649    1.003623
  S      1.073788   -0.071229    2.007810
  C     -5.763865   -0.118709   -3.845691
  S     -7.404638    0.414673   -3.531153
  C     -6.983581    0.827574   -1.867336
  C     -5.610698    0.550714   -1.593882
  C     -4.950320    0.008520   -2.759295
  C     -5.084796    0.820548   -0.296316
  C     -5.987021    1.358032    0.654098
  C     -7.352543    1.626463    0.359861
  C     -7.859850    1.357280   -0.921365
  S     -5.620668    1.786587    2.323101
  C     -7.280824    2.311545    2.595553
  C     -8.064070    2.171080    1.491797
  H     -3.906256   -0.279658   -2.795686
  H     -9.114970    2.438274    1.457792
  H     -7.597706    2.697923    3.556621
  H     -5.476232   -0.501226   -4.817051
  H      7.256863   -1.695215    3.193589
  H     -8.900289    1.556351   -1.163143

 Multiplicity           Mult            ....    1
 Number of Electrons    NEL             ....  268
 Basis Dimension        Dim             .... 1187

ORBITAL ENERGIES
----------------

  NO   OCC          E(Eh)            E(eV)
   0   2.0000     -89.012829     -2422.1622
   1   2.0000     -89.009094     -2422.0606
   2   2.0000     -88.986187     -2421.4372
   3   2.0000     -88.974038     -2421.1067
   4   2.0000     -14.477511      -393.9531
   5   2.0000     -14.474753      -393.8780
   6   2.0000     -14.472142      -393.8070
   7   2.0000     -14.467956      -393.6931
   8   2.0000     -14.465697      -393.6316
   9   2.0000     -10.381567      -282.4968
  10   2.0000     -10.380803      -282.4760
  11   2.0000     -10.380362      -282.4640
  12   2.0000     -10.376318      -282.3540
  13   2.0000     -10.336127      -281.2603
  14   2.0000     -10.333735      -281.1952
  15   2.0000     -10.332874      -281.1718
  16   2.0000     -10.330995      -281.1207
  17   2.0000     -10.329867      -281.0900
  18   2.0000     -10.327364      -281.0219
  19   2.0000     -10.322310      -280.8843
  20   2.0000     -10.322196      -280.8812
  21   2.0000     -10.312783      -280.6251
  22   2.0000     -10.312335      -280.6129
  23   2.0000     -10.308924      -280.5201
  24   2.0000     -10.306557      -280.4557
  25   2.0000     -10.302780      -280.3529
  26   2.0000     -10.300776      -280.2984
  27   2.0000     -10.297410      -280.2068
  28   2.0000     -10.296368      -280.1784
  29   2.0000     -10.290786      -280.0265
  30   2.0000     -10.290333      -280.0142
  31   2.0000     -10.285689      -279.8878
  32   2.0000     -10.284740      -279.8620
  33   2.0000     -10.278827      -279.7011
  34   2.0000     -10.272142      -279.5192
  35   2.0000      -8.109014      -220.6575
  36   2.0000      -8.105323      -220.5570
  37   2.0000      -8.082979      -219.9490
  38   2.0000      -8.069567      -219.5841
  39   2.0000      -6.062111      -164.9584
  40   2.0000      -6.058403      -164.8575
  41   2.0000      -6.058302      -164.8548
  42   2.0000      -6.055972      -164.7914
  43   2.0000      -6.054496      -164.7512
  44   2.0000      -6.052401      -164.6942
  45   2.0000      -6.036579      -164.2637
  46   2.0000      -6.032436      -164.1509
  47   2.0000      -6.029332      -164.0665
  48   2.0000      -6.023429      -163.9058
  49   2.0000      -6.018740      -163.7782
  50   2.0000      -6.015930      -163.7018
  51   2.0000      -1.160161       -31.5696
  52   2.0000      -1.151527       -31.3346
  53   2.0000      -1.109290       -30.1853
  54   2.0000      -1.033088       -28.1118
  55   2.0000      -0.999581       -27.2000
  56   2.0000      -0.994962       -27.0743
  57   2.0000      -0.982146       -26.7256
  58   2.0000      -0.966068       -26.2880
  59   2.0000      -0.958865       -26.0920
  60   2.0000      -0.939064       -25.5532
  61   2.0000      -0.927203       -25.2305
  62   2.0000      -0.918868       -25.0037
  63   2.0000      -0.903388       -24.5824
  64   2.0000      -0.899844       -24.4860
  65   2.0000      -0.876500       -23.8508
  66   2.0000      -0.860110       -23.4048
  67   2.0000      -0.848341       -23.0845
  68   2.0000      -0.842633       -22.9292
  69   2.0000      -0.840225       -22.8637
  70   2.0000      -0.817510       -22.2456
  71   2.0000      -0.787987       -21.4422
  72   2.0000      -0.774371       -21.0717
  73   2.0000      -0.758745       -20.6465
  74   2.0000      -0.733061       -19.9476
  75   2.0000      -0.725698       -19.7473
  76   2.0000      -0.718937       -19.5633
  77   2.0000      -0.713809       -19.4237
  78   2.0000      -0.699900       -19.0453
  79   2.0000      -0.681209       -18.5366
  80   2.0000      -0.671782       -18.2801
  81   2.0000      -0.665373       -18.1057
  82   2.0000      -0.659335       -17.9414
  83   2.0000      -0.644960       -17.5503
  84   2.0000      -0.627251       -17.0684
  85   2.0000      -0.623412       -16.9639
  86   2.0000      -0.617852       -16.8126
  87   2.0000      -0.607980       -16.5440
  88   2.0000      -0.593008       -16.1366
  89   2.0000      -0.579285       -15.7631
  90   2.0000      -0.574515       -15.6333
  91   2.0000      -0.570402       -15.5214
  92   2.0000      -0.562272       -15.3002
  93   2.0000      -0.557086       -15.1591
  94   2.0000      -0.553605       -15.0644
  95   2.0000      -0.547469       -14.8974
  96   2.0000      -0.546160       -14.8618
  97   2.0000      -0.539678       -14.6854
  98   2.0000      -0.538387       -14.6503
  99   2.0000      -0.531547       -14.4641
 100   2.0000      -0.529156       -14.3991
 101   2.0000      -0.526846       -14.3362
 102   2.0000      -0.520472       -14.1628
 103   2.0000      -0.518241       -14.1020
 104   2.0000      -0.513435       -13.9713
 105   2.0000      -0.486152       -13.2289
 106   2.0000      -0.486074       -13.2267
 107   2.0000      -0.479234       -13.0406
 108   2.0000      -0.477222       -12.9859
 109   2.0000      -0.473836       -12.8937
 110   2.0000      -0.469848       -12.7852
 111   2.0000      -0.462826       -12.5941
 112   2.0000      -0.451856       -12.2956
 113   2.0000      -0.451024       -12.2730
 114   2.0000      -0.447772       -12.1845
 115   2.0000      -0.441623       -12.0172
 116   2.0000      -0.439164       -11.9503
 117   2.0000      -0.434176       -11.8145
 118   2.0000      -0.415675       -11.3111
 119   2.0000      -0.411759       -11.2045
 120   2.0000      -0.406698       -11.0668
 121   2.0000      -0.400427       -10.8962
 122   2.0000      -0.396587       -10.7917
 123   2.0000      -0.393083       -10.6963
 124   2.0000      -0.380580       -10.3561
 125   2.0000      -0.373501       -10.1635
 126   2.0000      -0.366334        -9.9684
 127   2.0000      -0.358360        -9.7515
 128   2.0000      -0.347274        -9.4498
 129   2.0000      -0.332495        -9.0476
 130   2.0000      -0.319365        -8.6904
 131   2.0000      -0.302392        -8.2285
 132   2.0000      -0.293157        -7.9772
 133   2.0000      -0.285522        -7.7694
 134   0.0000      -0.040368        -1.0985
 135   0.0000      -0.007718        -0.2100
 136   0.0000       0.019489         0.5303
 137   0.0000       0.037813         1.0289
 138   0.0000       0.048350         1.3157

MULLIKEN ATOMIC CHARGES
-----------------------
   0 C :   -0.175558
   1 C :   -0.133274
   2 C :   -0.024079
   3 C :    0.174656
   4 C :   -0.240608
   5 C :   -0.075056
   6 C :   -0.029439
   7 C :    0.188854
   8 N :   -0.303066
   9 C :   -0.224914
  10 C :   -0.097716
  11 C :   -0.273546
  12 C :    0.108023
  13 H :    0.130443
  14 H :    0.237481
  15 H :    0.128040
  16 H :    0.155859
  17 H :    0.113273
  18 H :    0.122691
  19 H :    0.118111
  20 S :    0.046709
  21 C :    0.222985
  22 N :   -0.127425
  23 N :   -0.229239
  24 C :    0.105405
  25 C :    0.122129
  26 N :   -0.172608
  27 N :   -0.190378
  28 C :    0.162967
  29 S :    0.066652
  30 C :   -0.123492
  31 S :    0.061302
  32 C :    0.004919
  33 C :    0.060421
  34 C :   -0.314486
  35 C :    0.091327
  36 C :   -0.099829
  37 C :    0.097715
  38 C :   -0.263100
  39 S :    0.109596
  40 C :   -0.163710
  41 C :   -0.221221
  42 H :    0.144880
  43 H :    0.128612
  44 H :    0.158528
  45 H :    0.169253
  46 H :    0.120515
  47 H :    0.131399
Sum of atomic charges:   -0.0000000

LOEWDIN ATOMIC CHARGES
----------------------
   0 C :   -0.157819
   1 C :   -0.091837
   2 C :   -0.077949
   3 C :   -0.144295
   4 C :   -0.136069
   5 C :   -0.138836
   6 C :   -0.028101
   7 C :   -0.142957
   8 N :    0.201763
   9 C :   -0.117254
  10 C :   -0.140949
  11 C :   -0.122722
  12 C :   -0.116334
  13 H :    0.145529
  14 H :    0.193700
  15 H :    0.148103
  16 H :    0.153874
  17 H :    0.142647
  18 H :    0.144632
  19 H :    0.143995
  20 S :    0.737672
  21 C :   -0.378854
  22 N :    0.035640
  23 N :    0.050251
  24 C :   -0.456652
  25 C :   -0.460872
  26 N :    0.043475
  27 N :    0.047900
  28 C :   -0.373189
  29 S :    0.740033
  30 C :   -0.354010
  31 S :    0.679131
  32 C :   -0.302234
  33 C :   -0.104873
  34 C :   -0.183187
  35 C :   -0.121891
  36 C :   -0.241680
  37 C :   -0.148255
  38 C :   -0.089231
  39 S :    0.708197
  40 C :   -0.358439
  41 C :   -0.173921
  42 H :    0.137951
  43 H :    0.144511
  44 H :    0.130627
  45 H :    0.133860
  46 H :    0.145983
  47 H :    0.152936

  Mayer bond orders larger than 0.1
B(  0-C ,  1-C ) :   1.5364 B(  0-C ,  5-C ) :   1.3518 B(  0-C , 19-H ) :   0.9872
B(  1-C ,  2-C ) :   1.2677 B(  1-C , 16-H ) :   0.9366 B(  2-C ,  3-C ) :   1.3565
B(  2-C ,  6-C ) :   1.0801 B(  3-C ,  4-C ) :   1.3000 B(  3-C ,  8-N ) :   1.1141
B(  4-C ,  5-C ) :   1.4835 B(  4-C , 17-H ) :   0.9762 B(  5-C , 18-H ) :   0.9811
B(  6-C ,  7-C ) :   1.3213 B(  6-C , 12-C ) :   1.2460 B(  7-C ,  8-N ) :   1.1540
B(  7-C ,  9-C ) :   1.2893 B(  8-N , 14-H ) :   0.9130 B(  9-C , 10-C ) :   1.4664
B(  9-C , 46-H ) :   0.9731 B( 10-C , 11-C ) :   1.4195 B( 10-C , 15-H ) :   0.9805
B( 11-C , 12-C ) :   1.4069 B( 11-C , 13-H ) :   0.9597 B( 12-C , 28-C ) :   0.9574
B( 20-S , 21-C ) :   1.2790 B( 20-S , 24-C ) :   1.3269 B( 21-C , 22-N ) :   1.6412
B( 21-C , 35-C ) :   0.9217 B( 21-C , 36-C ) :  -0.1020 B( 22-N , 23-N ) :   1.1620
B( 23-N , 24-C ) :   1.6982 B( 24-C , 25-C ) :   0.9553 B( 25-C , 26-N ) :   1.6949
B( 25-C , 29-S ) :   1.3014 B( 26-N , 27-N ) :   1.1241 B( 27-N , 28-C ) :   1.6438
B( 28-C , 29-S ) :   1.2869 B( 30-C , 31-S ) :   1.1762 B( 30-C , 34-C ) :   1.8221
B( 30-C , 45-H ) :   0.9341 B( 31-S , 32-C ) :   1.2349 B( 31-S , 34-C ) :   0.1679
B( 32-C , 33-C ) :   1.3251 B( 32-C , 38-C ) :   1.3476 B( 33-C , 34-C ) :   1.0898
B( 33-C , 35-C ) :   1.1935 B( 34-C , 42-H ) :   0.9396 B( 35-C , 36-C ) :   1.2405
B( 36-C , 37-C ) :   1.2460 B( 36-C , 39-S ) :   1.3227 B( 37-C , 38-C ) :   1.3273
B( 37-C , 41-C ) :   1.1249 B( 38-C , 47-H ) :   0.9657 B( 39-S , 40-C ) :   1.1916
B( 39-S , 41-C ) :   0.1099 B( 40-C , 41-C ) :   1.7846 B( 40-C , 44-H ) :   0.9433
B( 41-C , 43-H ) :   0.9656

Dispersion correction           -0.023260984
FINAL SINGLE POINT ENERGY     -2865.215382852905

DIPOLE MOMENT
-------------
                                X             Y             Z
Electronic contribution:    -20.31643       1.99292       3.51695
Nuclear contribution   :     21.09558      -2.07604      -3.44235
                        -----------------------------------------
Total Dipole Moment    :      0.77915      -0.08312       0.07460
                        -----------------------------------------
Magnitude (a.u.)       :      0.78711
Magnitude (Debye)      :      2.00068

                             ****ORCA TERMINATED NORMALLY****
TOTAL RUN TIME: 0 days 0 hours 14 minutes 29 seconds 96 msec
