                         Program Version 4.0.0 -  RELEASE  -
|  1> #
|  2> !wB97X-D3 def2-TZVP def2/J RIJCOSX Grid5 FinalGrid6 TightSCF
|  3> %pal
|  4>  nprocs 24
|  5> end
|  6> %tddft
|  7>   Mode sTDDFT
|  8>   nroots 2
|  9>   Ethresh 10.0
| 10>   maxcore 5000
| 11>   triplets true
| 12> end
| 13> * xyz 0 1
| 14> C -4.48900866 3.02412386 0.51139260
| 15> C -3.65251389 1.93169086 0.29372198
| 16> C -4.16407058 0.79919642 -0.36633091
| 17> C -5.51207859 0.82821349 -0.82235741
| 18> C -6.35912378 1.92397188 -0.59647442
| 19> C -5.82824034 3.01801595 0.08303514
| 20> C -3.61008146 -0.47460591 -0.79533848
| 21> C -4.64321489 -1.13109702 -1.52314019
| 22> N -5.78272538 -0.34591068 -1.50383547
| 23> C -4.45608087 -2.36729921 -2.16080524
| 24> C -3.18967965 -2.94338196 -2.07652228
| 25> C -2.15848084 -2.32558673 -1.35542403
| 26> C -2.34370499 -1.10560026 -0.67954654
| 27> H -1.19170859 -2.81865064 -1.28934632
| 28> H -6.65685773 -0.57143551 -1.96250123
| 29> H -2.99821383 -3.89332569 -2.56796124
| 30> H -2.61657192 1.97216660 0.61741107
| 31> H -7.38743143 1.92249445 -0.94807584
| 32> H -6.45415959 3.88552643 0.27444768
| 33> H -4.09997574 3.90159902 1.02051461
| 34> N 3.26706736 -0.04266384 0.63766250
| 35> C 2.28330539 0.32078971 1.54117905
| 36> C 2.75062429 0.91314142 2.70856733
| 37> S 4.48279683 1.02233985 2.68197239
| 38> C 4.47775322 0.25361216 1.07806253
| 39> C 0.89004942 0.06751556 1.21620286
| 40> S 0.43739643 -0.69043852 -0.31801181
| 41> C -1.25571211 -0.56576437 0.14585327
| 42> C -1.33751874 0.00524032 1.40450250
| 43> N -0.14506201 0.35789285 1.99302878
| 44> H 2.14634874 1.26596635 3.53419672
| 45> H -2.26697889 0.15023407 1.95045858
| 46> N 4.70305998 -1.01362536 -1.59533328
| 47> C 5.77490288 -0.62103277 -0.93596088
| 48> C 7.08854253 -0.82845798 -1.56238416
| 49> N 7.12253617 -1.39936717 -2.75705845
| 50> S 5.33408751 -1.74623186 -3.21565492
| 51> C 8.24993419 -0.39719010 -0.83506645
| 52> C 8.07717022 0.18210540 0.39803705
| 53> N 6.85368689 0.38447106 1.00050425
| 54> C 5.73421738 0.00922290 0.38346464
| 55> H 8.94570898 0.51851774 0.97100759
| 56> H -5.26097551 -2.84652050 -2.71074562
| 57> H 9.24108160 -0.53026226 -1.25894792
| 58> *
| 59> $new_job
| 60> #
| 61> !wB97X-D3 def2-TZVP def2/J RIJCOSX Grid5 FinalGrid6 TightSCF
| 62> %pal
| 63>  nprocs 24
| 64> end
| 65> %elprop
| 66>    dipole     true
| 67>    quadrupole true
| 68> end
| 69> %tddft
| 70>   Mode sTDDFT
| 71>   nroots 2
| 72>   Ethresh 10.0
| 73>   maxcore 5000
| 74> end
| 75> * xyz 0 1
| 76> C -4.48900866 3.02412386 0.51139260
| 77> C -3.65251389 1.93169086 0.29372198
| 78> C -4.16407058 0.79919642 -0.36633091
| 79> C -5.51207859 0.82821349 -0.82235741
| 80> C -6.35912378 1.92397188 -0.59647442
| 81> C -5.82824034 3.01801595 0.08303514
| 82> C -3.61008146 -0.47460591 -0.79533848
| 83> C -4.64321489 -1.13109702 -1.52314019
| 84> N -5.78272538 -0.34591068 -1.50383547
| 85> C -4.45608087 -2.36729921 -2.16080524
| 86> C -3.18967965 -2.94338196 -2.07652228
| 87> C -2.15848084 -2.32558673 -1.35542403
| 88> C -2.34370499 -1.10560026 -0.67954654
| 89> H -1.19170859 -2.81865064 -1.28934632
| 90> H -6.65685773 -0.57143551 -1.96250123
| 91> H -2.99821383 -3.89332569 -2.56796124
| 92> H -2.61657192 1.97216660 0.61741107
| 93> H -7.38743143 1.92249445 -0.94807584
| 94> H -6.45415959 3.88552643 0.27444768
| 95> H -4.09997574 3.90159902 1.02051461
| 96> N 3.26706736 -0.04266384 0.63766250
| 97> C 2.28330539 0.32078971 1.54117905
| 98> C 2.75062429 0.91314142 2.70856733
| 99> S 4.48279683 1.02233985 2.68197239
|100> C 4.47775322 0.25361216 1.07806253
|101> C 0.89004942 0.06751556 1.21620286
|102> S 0.43739643 -0.69043852 -0.31801181
|103> C -1.25571211 -0.56576437 0.14585327
|104> C -1.33751874 0.00524032 1.40450250
|105> N -0.14506201 0.35789285 1.99302878
|106> H 2.14634874 1.26596635 3.53419672
|107> H -2.26697889 0.15023407 1.95045858
|108> N 4.70305998 -1.01362536 -1.59533328
|109> C 5.77490288 -0.62103277 -0.93596088
|110> C 7.08854253 -0.82845798 -1.56238416
|111> N 7.12253617 -1.39936717 -2.75705845
|112> S 5.33408751 -1.74623186 -3.21565492
|113> C 8.24993419 -0.39719010 -0.83506645
|114> C 8.07717022 0.18210540 0.39803705
|115> N 6.85368689 0.38447106 1.00050425
|116> C 5.73421738 0.00922290 0.38346464
|117> H 8.94570898 0.51851774 0.97100759
|118> H -5.26097551 -2.84652050 -2.71074562
|119> H 9.24108160 -0.53026226 -1.25894792
|120> *
|121>
|122>                          ****END OF INPUT****
 Total Charge           Charge          ....    0
 Multiplicity           Mult            ....    1
 Number of Electrons    NEL             ....  240
Dispersion correction           -0.020988971
FINAL SINGLE POINT ENERGY     -2406.810293745447

CARTESIAN COORDINATES (ANGSTROEM)
---------------------------------
  C     -4.489009    3.024124    0.511393
  C     -3.652514    1.931691    0.293722
  C     -4.164071    0.799196   -0.366331
  C     -5.512079    0.828213   -0.822357
  C     -6.359124    1.923972   -0.596474
  C     -5.828240    3.018016    0.083035
  C     -3.610081   -0.474606   -0.795338
  C     -4.643215   -1.131097   -1.523140
  N     -5.782725   -0.345911   -1.503835
  C     -4.456081   -2.367299   -2.160805
  C     -3.189680   -2.943382   -2.076522
  C     -2.158481   -2.325587   -1.355424
  C     -2.343705   -1.105600   -0.679547
  H     -1.191709   -2.818651   -1.289346
  H     -6.656858   -0.571436   -1.962501
  H     -2.998214   -3.893326   -2.567961
  H     -2.616572    1.972167    0.617411
  H     -7.387431    1.922494   -0.948076
  H     -6.454160    3.885526    0.274448
  H     -4.099976    3.901599    1.020515
  N      3.267067   -0.042664    0.637663
  C      2.283305    0.320790    1.541179
  C      2.750624    0.913141    2.708567
  S      4.482797    1.022340    2.681972
  C      4.477753    0.253612    1.078063
  C      0.890049    0.067516    1.216203
  S      0.437396   -0.690439   -0.318012
  C     -1.255712   -0.565764    0.145853
  C     -1.337519    0.005240    1.404502
  N     -0.145062    0.357893    1.993029
  H      2.146349    1.265966    3.534197
  H     -2.266979    0.150234    1.950459
  N      4.703060   -1.013625   -1.595333
  C      5.774903   -0.621033   -0.935961
  C      7.088543   -0.828458   -1.562384
  N      7.122536   -1.399367   -2.757058
  S      5.334088   -1.746232   -3.215655
  C      8.249934   -0.397190   -0.835066
  C      8.077170    0.182105    0.398037
  N      6.853687    0.384471    1.000504
  C      5.734217    0.009223    0.383465
  H      8.945709    0.518518    0.971008
  H     -5.260976   -2.846520   -2.710746
  H      9.241082   -0.530262   -1.258948

 Multiplicity           Mult            ....    1
 Number of Electrons    NEL             ....  240
 Basis Dimension        Dim             .... 1082

ORBITAL ENERGIES
----------------

  NO   OCC          E(Eh)            E(eV)
   0   2.0000     -89.041988     -2422.9557
   1   2.0000     -89.004543     -2421.9367
   2   2.0000     -88.986407     -2421.4433
   3   2.0000     -14.498558      -394.5258
   4   2.0000     -14.491011      -394.3204
   5   2.0000     -14.468740      -393.7144
   6   2.0000     -14.460418      -393.4880
   7   2.0000     -14.449221      -393.1833
   8   2.0000     -14.430150      -392.6644
   9   2.0000     -10.380573      -282.4697
  10   2.0000     -10.372994      -282.2635
  11   2.0000     -10.364096      -282.0214
  12   2.0000     -10.362276      -281.9719
  13   2.0000     -10.358519      -281.8696
  14   2.0000     -10.345749      -281.5221
  15   2.0000     -10.342374      -281.4303
  16   2.0000     -10.334395      -281.2132
  17   2.0000     -10.329638      -281.0837
  18   2.0000     -10.326486      -280.9980
  19   2.0000     -10.324577      -280.9460
  20   2.0000     -10.318852      -280.7902
  21   2.0000     -10.312378      -280.6141
  22   2.0000     -10.311515      -280.5906
  23   2.0000     -10.295904      -280.1658
  24   2.0000     -10.290607      -280.0217
  25   2.0000     -10.290317      -280.0138
  26   2.0000     -10.289178      -279.9828
  27   2.0000     -10.287049      -279.9248
  28   2.0000     -10.285245      -279.8758
  29   2.0000     -10.284325      -279.8507
  30   2.0000     -10.282382      -279.7978
  31   2.0000     -10.275731      -279.6169
  32   2.0000      -8.130529      -221.2429
  33   2.0000      -8.100209      -220.4179
  34   2.0000      -8.082516      -219.9364
  35   2.0000      -6.086365      -165.6184
  36   2.0000      -6.079972      -165.4445
  37   2.0000      -6.075840      -165.3320
  38   2.0000      -6.053302      -164.7187
  39   2.0000      -6.049089      -164.6041
  40   2.0000      -6.047754      -164.5677
  41   2.0000      -6.035582      -164.2365
  42   2.0000      -6.031568      -164.1273
  43   2.0000      -6.029849      -164.0805
  44   2.0000      -1.115130       -30.3442
  45   2.0000      -1.105461       -30.0811
  46   2.0000      -1.096431       -29.8354
  47   2.0000      -1.076195       -29.2847
  48   2.0000      -1.070188       -29.1213
  49   2.0000      -1.013516       -27.5792
  50   2.0000      -0.977984       -26.6123
  51   2.0000      -0.966156       -26.2904
  52   2.0000      -0.930895       -25.3309
  53   2.0000      -0.927063       -25.2267
  54   2.0000      -0.918217       -24.9859
  55   2.0000      -0.908045       -24.7092
  56   2.0000      -0.899898       -24.4875
  57   2.0000      -0.884145       -24.0588
  58   2.0000      -0.868498       -23.6330
  59   2.0000      -0.849845       -23.1255
  60   2.0000      -0.840206       -22.8632
  61   2.0000      -0.828237       -22.5375
  62   2.0000      -0.796826       -21.6827
  63   2.0000      -0.768292       -20.9063
  64   2.0000      -0.756292       -20.5798
  65   2.0000      -0.745702       -20.2916
  66   2.0000      -0.727037       -19.7837
  67   2.0000      -0.719568       -19.5804
  68   2.0000      -0.713677       -19.4201
  69   2.0000      -0.709863       -19.3164
  70   2.0000      -0.684108       -18.6155
  71   2.0000      -0.666596       -18.1390
  72   2.0000      -0.654270       -17.8036
  73   2.0000      -0.643483       -17.5101
  74   2.0000      -0.628303       -17.0970
  75   2.0000      -0.621957       -16.9243
  76   2.0000      -0.612633       -16.6706
  77   2.0000      -0.605796       -16.4845
  78   2.0000      -0.588396       -16.0111
  79   2.0000      -0.585306       -15.9270
  80   2.0000      -0.575840       -15.6694
  81   2.0000      -0.571579       -15.5535
  82   2.0000      -0.565544       -15.3892
  83   2.0000      -0.558547       -15.1988
  84   2.0000      -0.547975       -14.9112
  85   2.0000      -0.542740       -14.7687
  86   2.0000      -0.536739       -14.6054
  87   2.0000      -0.532317       -14.4851
  88   2.0000      -0.529950       -14.4207
  89   2.0000      -0.525950       -14.3118
  90   2.0000      -0.521212       -14.1829
  91   2.0000      -0.518143       -14.0994
  92   2.0000      -0.513676       -13.9778
  93   2.0000      -0.508763       -13.8441
  94   2.0000      -0.499664       -13.5965
  95   2.0000      -0.487179       -13.2568
  96   2.0000      -0.480032       -13.0623
  97   2.0000      -0.471038       -12.8176
  98   2.0000      -0.468574       -12.7505
  99   2.0000      -0.463798       -12.6206
 100   2.0000      -0.450918       -12.2701
 101   2.0000      -0.449301       -12.2261
 102   2.0000      -0.442962       -12.0536
 103   2.0000      -0.438415       -11.9299
 104   2.0000      -0.433553       -11.7976
 105   2.0000      -0.428696       -11.6654
 106   2.0000      -0.411039       -11.1850
 107   2.0000      -0.396403       -10.7867
 108   2.0000      -0.395074       -10.7505
 109   2.0000      -0.389651       -10.6030
 110   2.0000      -0.380070       -10.3422
 111   2.0000      -0.374210       -10.1828
 112   2.0000      -0.372964       -10.1489
 113   2.0000      -0.371890       -10.1196
 114   2.0000      -0.368485       -10.0270
 115   2.0000      -0.352056        -9.5799
 116   2.0000      -0.333957        -9.0874
 117   2.0000      -0.308395        -8.3919
 118   2.0000      -0.296570        -8.0701
 119   2.0000      -0.280287        -7.6270
 120   0.0000      -0.070205        -1.9104
 121   0.0000      -0.004910        -0.1336
 122   0.0000       0.009932         0.2703
 123   0.0000       0.011145         0.3033
 124   0.0000       0.032849         0.8939

MULLIKEN ATOMIC CHARGES
-----------------------
   0 C :   -0.157490
   1 C :   -0.221324
   2 C :   -0.041960
   3 C :    0.173295
   4 C :   -0.227699
   5 C :   -0.089391
   6 C :   -0.014619
   7 C :    0.180233
   8 N :   -0.301862
   9 C :   -0.241754
  10 C :   -0.080771
  11 C :   -0.281390
  12 C :    0.199077
  13 H :    0.129784
  14 H :    0.236613
  15 H :    0.124430
  16 H :    0.208005
  17 H :    0.115282
  18 H :    0.122873
  19 H :    0.119969
  20 N :   -0.277230
  21 C :    0.095606
  22 C :   -0.192929
  23 S :    0.123048
  24 C :    0.216596
  25 C :    0.117408
  26 S :    0.072663
  27 C :    0.046157
  28 C :   -0.220922
  29 N :   -0.275363
  30 H :    0.186799
  31 H :    0.189628
  32 N :   -0.195054
  33 C :    0.022653
  34 C :    0.122159
  35 N :   -0.218309
  36 S :    0.199078
  37 C :   -0.179530
  38 C :   -0.028273
  39 N :   -0.311044
  40 C :    0.136553
  41 H :    0.146861
  42 H :    0.116398
  43 H :    0.155746
Sum of atomic charges:   -0.0000000

LOEWDIN ATOMIC CHARGES
----------------------
   0 C :   -0.158397
   1 C :   -0.105074
   2 C :   -0.081234
   3 C :   -0.145330
   4 C :   -0.132814
   5 C :   -0.141974
   6 C :   -0.041441
   7 C :   -0.143741
   8 N :    0.200326
   9 C :   -0.129492
  10 C :   -0.140707
  11 C :   -0.125015
  12 C :   -0.110057
  13 H :    0.146417
  14 H :    0.193081
  15 H :    0.146713
  16 H :    0.154336
  17 H :    0.143122
  18 H :    0.144673
  19 H :    0.144091
  20 N :    0.163752
  21 C :   -0.282507
  22 C :   -0.328025
  23 S :    0.742158
  24 C :   -0.382591
  25 C :   -0.396384
  26 S :    0.756526
  27 C :   -0.322267
  28 C :   -0.233236
  29 N :    0.106942
  30 H :    0.142221
  31 H :    0.147881
  32 N :   -0.019143
  33 C :   -0.230068
  34 C :   -0.269626
  35 N :   -0.062290
  36 S :    0.522625
  37 C :   -0.113548
  38 C :   -0.189289
  39 N :    0.151668
  40 C :   -0.169518
  41 H :    0.146593
  42 H :    0.143734
  43 H :    0.156909

  Mayer bond orders larger than 0.1
B(  0-C ,  1-C ) :   1.5363 B(  0-C ,  5-C ) :   1.3609 B(  0-C , 19-H ) :   0.9840
B(  1-C ,  2-C ) :   1.2803 B(  1-C , 16-H ) :   0.9201 B(  2-C ,  3-C ) :   1.3694
B(  2-C ,  6-C ) :   1.0485 B(  3-C ,  4-C ) :   1.3075 B(  3-C ,  8-N ) :   1.1211
B(  4-C ,  5-C ) :   1.4846 B(  4-C , 17-H ) :   0.9768 B(  5-C , 18-H ) :   0.9803
B(  6-C ,  7-C ) :   1.3286 B(  6-C , 12-C ) :   1.2180 B(  7-C ,  8-N ) :   1.1511
B(  7-C ,  9-C ) :   1.2862 B(  8-N , 14-H ) :   0.9128 B(  9-C , 10-C ) :   1.4680
B(  9-C , 42-H ) :   0.9761 B( 10-C , 11-C ) :   1.4035 B( 10-C , 15-H ) :   0.9822
B( 11-C , 12-C ) :   1.4333 B( 11-C , 13-H ) :   0.9632 B( 12-C , 27-C ) :   0.8380
B( 20-N , 21-C ) :   1.2314 B( 20-N , 24-C ) :   1.6485 B( 21-C , 22-C ) :   1.6416
B( 21-C , 25-C ) :   0.9895 B( 22-C , 23-S ) :   1.3188 B( 22-C , 30-H ) :   0.9121
B( 23-S , 24-C ) :   1.2757 B( 24-C , 40-C ) :   1.0027 B( 25-C , 26-S ) :   1.3421
B( 25-C , 29-N ) :   1.6120 B( 26-S , 27-C ) :   1.2647 B( 27-C , 28-C ) :   1.5750
B( 28-C , 29-N ) :   1.3206 B( 28-C , 31-H ) :   0.9725 B( 32-N , 33-C ) :   1.7220
B( 32-N , 35-N ) :   0.1261 B( 32-N , 36-S ) :   1.1273 B( 33-C , 34-C ) :   1.0411
B( 33-C , 40-C ) :   1.0947 B( 34-C , 35-N ) :   1.7232 B( 34-C , 37-C ) :   1.1503
B( 35-N , 36-S ) :   1.1114 B( 37-C , 38-C ) :   1.6605 B( 37-C , 43-H ) :   0.9478
B( 38-C , 39-N ) :   1.2676 B( 38-C , 41-H ) :   0.9752 B( 39-N , 40-C ) :   1.6325

Dispersion correction           -0.020988971
FINAL SINGLE POINT ENERGY     -2406.810293738532

DIPOLE MOMENT
-------------
                                X             Y             Z
Electronic contribution:     27.75922      -4.45281      -0.68012
Nuclear contribution   :    -28.23258       4.35738       0.37773
                        -----------------------------------------
Total Dipole Moment    :     -0.47335      -0.09543      -0.30240
                        -----------------------------------------
Magnitude (a.u.)       :      0.56975
Magnitude (Debye)      :      1.44818

                             ****ORCA TERMINATED NORMALLY****
TOTAL RUN TIME: 0 days 0 hours 12 minutes 45 seconds 178 msec
