                         Program Version 4.0.0 -  RELEASE  -
|  1> #
|  2> !wB97X-D3 def2-TZVP def2/J RIJCOSX Grid5 FinalGrid6 TightSCF
|  3> %pal
|  4>  nprocs 24
|  5> end
|  6> %tddft
|  7>   Mode sTDDFT
|  8>   nroots 2
|  9>   Ethresh 10.0
| 10>   maxcore 5000
| 11>   triplets true
| 12> end
| 13> * xyz 0 1
| 14> C 5.35895780 -2.04360247 -1.77871423
| 15> C 4.48485555 -1.17568639 -1.12795749
| 16> C 4.99443667 -0.28908383 -0.16156381
| 17> C 6.38395427 -0.33950610 0.14285825
| 18> C 7.26779819 -1.20655607 -0.51753390
| 19> C 6.73440824 -2.05266695 -1.48728409
| 20> C 4.41249052 0.70433551 0.72635729
| 21> C 5.47681255 1.17310234 1.54806303
| 22> N 6.65436188 0.55544666 1.16377095
| 23> C 5.28472584 2.09606361 2.58786104
| 24> C 3.98286098 2.54024026 2.81348514
| 25> C 2.91888570 2.10575837 2.01095574
| 26> C 3.10366278 1.21074777 0.94106687
| 27> H 1.92171907 2.49559348 2.20026876
| 28> H 7.55816452 0.69662358 1.59792910
| 29> H 3.78787786 3.24449060 3.61770766
| 30> H 3.42403276 -1.20452684 -1.35885450
| 31> H 8.32673023 -1.22407820 -0.27364953
| 32> H 7.38848170 -2.73917137 -2.01829426
| 33> H 4.97161942 -2.73059351 -2.52609535
| 34> N -2.53813830 0.11644311 -0.18521566
| 35> C -1.64482688 0.17750977 -1.24456405
| 36> C -2.20633167 -0.02668999 -2.49466393
| 37> S -3.91988580 -0.30647790 -2.34799328
| 38> C -3.77621385 -0.12984298 -0.58678485
| 39> C -0.24214739 0.44013555 -0.97147860
| 40> S 0.32923122 0.67598328 0.68985702
| 41> C 1.96709791 0.87864864 0.07288071
| 42> C 1.94396276 0.77726882 -1.30693876
| 43> N 0.71762974 0.53083026 -1.88140807
| 44> H -1.68110342 -0.01864493 -3.44071108
| 45> H 2.81468866 0.91610104 -1.94404255
| 46> C -7.70739027 -0.90880161 -1.86302042
| 47> N -6.46098555 -0.66318317 -1.47426015
| 48> C -6.23578130 -0.50986686 -0.13146492
| 49> C -7.31390795 -0.61344299 0.80394611
| 50> N -8.59542645 -0.86827477 0.37628205
| 51> C -8.77722223 -1.01119414 -0.93118729
| 52> C -7.05040471 -0.44977388 2.19268985
| 53> C -5.76314108 -0.19375248 2.62343348
| 54> C -4.69788710 -0.09077477 1.70599080
| 55> C -4.90428883 -0.24305385 0.33580586
| 56> H -3.69292321 0.11103996 2.06655118
| 57> H -5.56111114 -0.06874875 3.68409650
| 58> H -9.79551320 -1.21475796 -1.28359891
| 59> H -7.89012426 -1.03189114 -2.93674180
| 60> H 6.11409053 2.43681319 3.20106508
| 61> H -7.86878277 -0.52843191 2.90319900
| 62> *
| 63> $new_job
| 64> #
| 65> !wB97X-D3 def2-TZVP def2/J RIJCOSX Grid5 FinalGrid6 TightSCF
| 66> %pal
| 67>  nprocs 24
| 68> end
| 69> %elprop
| 70>    dipole     true
| 71>    quadrupole true
| 72> end
| 73> %tddft
| 74>   Mode sTDDFT
| 75>   nroots 2
| 76>   Ethresh 10.0
| 77>   maxcore 5000
| 78> end
| 79> * xyz 0 1
| 80> C 5.35895780 -2.04360247 -1.77871423
| 81> C 4.48485555 -1.17568639 -1.12795749
| 82> C 4.99443667 -0.28908383 -0.16156381
| 83> C 6.38395427 -0.33950610 0.14285825
| 84> C 7.26779819 -1.20655607 -0.51753390
| 85> C 6.73440824 -2.05266695 -1.48728409
| 86> C 4.41249052 0.70433551 0.72635729
| 87> C 5.47681255 1.17310234 1.54806303
| 88> N 6.65436188 0.55544666 1.16377095
| 89> C 5.28472584 2.09606361 2.58786104
| 90> C 3.98286098 2.54024026 2.81348514
| 91> C 2.91888570 2.10575837 2.01095574
| 92> C 3.10366278 1.21074777 0.94106687
| 93> H 1.92171907 2.49559348 2.20026876
| 94> H 7.55816452 0.69662358 1.59792910
| 95> H 3.78787786 3.24449060 3.61770766
| 96> H 3.42403276 -1.20452684 -1.35885450
| 97> H 8.32673023 -1.22407820 -0.27364953
| 98> H 7.38848170 -2.73917137 -2.01829426
| 99> H 4.97161942 -2.73059351 -2.52609535
|100> N -2.53813830 0.11644311 -0.18521566
|101> C -1.64482688 0.17750977 -1.24456405
|102> C -2.20633167 -0.02668999 -2.49466393
|103> S -3.91988580 -0.30647790 -2.34799328
|104> C -3.77621385 -0.12984298 -0.58678485
|105> C -0.24214739 0.44013555 -0.97147860
|106> S 0.32923122 0.67598328 0.68985702
|107> C 1.96709791 0.87864864 0.07288071
|108> C 1.94396276 0.77726882 -1.30693876
|109> N 0.71762974 0.53083026 -1.88140807
|110> H -1.68110342 -0.01864493 -3.44071108
|111> H 2.81468866 0.91610104 -1.94404255
|112> C -7.70739027 -0.90880161 -1.86302042
|113> N -6.46098555 -0.66318317 -1.47426015
|114> C -6.23578130 -0.50986686 -0.13146492
|115> C -7.31390795 -0.61344299 0.80394611
|116> N -8.59542645 -0.86827477 0.37628205
|117> C -8.77722223 -1.01119414 -0.93118729
|118> C -7.05040471 -0.44977388 2.19268985
|119> C -5.76314108 -0.19375248 2.62343348
|120> C -4.69788710 -0.09077477 1.70599080
|121> C -4.90428883 -0.24305385 0.33580586
|122> H -3.69292321 0.11103996 2.06655118
|123> H -5.56111114 -0.06874875 3.68409650
|124> H -9.79551320 -1.21475796 -1.28359891
|125> H -7.89012426 -1.03189114 -2.93674180
|126> H 6.11409053 2.43681319 3.20106508
|127> H -7.86878277 -0.52843191 2.90319900
|128> *
|129>
|130>                          ****END OF INPUT****
 Total Charge           Charge          ....    0
 Multiplicity           Mult            ....    1
 Number of Electrons    NEL             ....  238
Dispersion correction           -0.022336457
FINAL SINGLE POINT ENERGY     -2070.058022071370

CARTESIAN COORDINATES (ANGSTROEM)
---------------------------------
  C      5.358958   -2.043602   -1.778714
  C      4.484856   -1.175686   -1.127957
  C      4.994437   -0.289084   -0.161564
  C      6.383954   -0.339506    0.142858
  C      7.267798   -1.206556   -0.517534
  C      6.734408   -2.052667   -1.487284
  C      4.412491    0.704336    0.726357
  C      5.476813    1.173102    1.548063
  N      6.654362    0.555447    1.163771
  C      5.284726    2.096064    2.587861
  C      3.982861    2.540240    2.813485
  C      2.918886    2.105758    2.010956
  C      3.103663    1.210748    0.941067
  H      1.921719    2.495593    2.200269
  H      7.558165    0.696624    1.597929
  H      3.787878    3.244491    3.617708
  H      3.424033   -1.204527   -1.358855
  H      8.326730   -1.224078   -0.273650
  H      7.388482   -2.739171   -2.018294
  H      4.971619   -2.730594   -2.526095
  N     -2.538138    0.116443   -0.185216
  C     -1.644827    0.177510   -1.244564
  C     -2.206332   -0.026690   -2.494664
  S     -3.919886   -0.306478   -2.347993
  C     -3.776214   -0.129843   -0.586785
  C     -0.242147    0.440136   -0.971479
  S      0.329231    0.675983    0.689857
  C      1.967098    0.878649    0.072881
  C      1.943963    0.777269   -1.306939
  N      0.717630    0.530830   -1.881408
  H     -1.681103   -0.018645   -3.440711
  H      2.814689    0.916101   -1.944043
  C     -7.707390   -0.908802   -1.863020
  N     -6.460986   -0.663183   -1.474260
  C     -6.235781   -0.509867   -0.131465
  C     -7.313908   -0.613443    0.803946
  N     -8.595426   -0.868275    0.376282
  C     -8.777222   -1.011194   -0.931187
  C     -7.050405   -0.449774    2.192690
  C     -5.763141   -0.193752    2.623433
  C     -4.697887   -0.090775    1.705991
  C     -4.904289   -0.243054    0.335806
  H     -3.692923    0.111040    2.066551
  H     -5.561111   -0.068749    3.684096
  H     -9.795513   -1.214758   -1.283599
  H     -7.890124   -1.031891   -2.936742
  H      6.114091    2.436813    3.201065
  H     -7.868783   -0.528432    2.903199

 Multiplicity           Mult            ....    1
 Number of Electrons    NEL             ....  238
 Basis Dimension        Dim             .... 1125

ORBITAL ENERGIES
----------------

  NO   OCC          E(Eh)            E(eV)
   0   2.0000     -88.989949     -2421.5396
   1   2.0000     -88.981685     -2421.3148
   2   2.0000     -14.466783      -393.6612
   3   2.0000     -14.460400      -393.4875
   4   2.0000     -14.458439      -393.4341
   5   2.0000     -14.433897      -392.7663
   6   2.0000     -14.424349      -392.5065
   7   2.0000     -10.362885      -281.9884
   8   2.0000     -10.353437      -281.7313
   9   2.0000     -10.348640      -281.6008
  10   2.0000     -10.347570      -281.5717
  11   2.0000     -10.345087      -281.5041
  12   2.0000     -10.344468      -281.4873
  13   2.0000     -10.329431      -281.0781
  14   2.0000     -10.327520      -281.0261
  15   2.0000     -10.324432      -280.9421
  16   2.0000     -10.323323      -280.9119
  17   2.0000     -10.320031      -280.8223
  18   2.0000     -10.315138      -280.6892
  19   2.0000     -10.309003      -280.5222
  20   2.0000     -10.308404      -280.5059
  21   2.0000     -10.308074      -280.4970
  22   2.0000     -10.307177      -280.4726
  23   2.0000     -10.306059      -280.4421
  24   2.0000     -10.293493      -280.1002
  25   2.0000     -10.288474      -279.9636
  26   2.0000     -10.288089      -279.9531
  27   2.0000     -10.287139      -279.9273
  28   2.0000     -10.285175      -279.8738
  29   2.0000     -10.283366      -279.8246
  30   2.0000     -10.282127      -279.7909
  31   2.0000     -10.279910      -279.7306
  32   2.0000     -10.273686      -279.5612
  33   2.0000      -8.085146      -220.0080
  34   2.0000      -8.077883      -219.8104
  35   2.0000      -6.038415      -164.3136
  36   2.0000      -6.034007      -164.1937
  37   2.0000      -6.032540      -164.1537
  38   2.0000      -6.030957      -164.1107
  39   2.0000      -6.026971      -164.0022
  40   2.0000      -6.025179      -163.9535
  41   2.0000      -1.113142       -30.2901
  42   2.0000      -1.103394       -30.0249
  43   2.0000      -1.086781       -29.5728
  44   2.0000      -1.066939       -29.0329
  45   2.0000      -1.040274       -28.3073
  46   2.0000      -0.990229       -26.9455
  47   2.0000      -0.975295       -26.5391
  48   2.0000      -0.964046       -26.2330
  49   2.0000      -0.919846       -25.0303
  50   2.0000      -0.915159       -24.9027
  51   2.0000      -0.910459       -24.7748
  52   2.0000      -0.897691       -24.4274
  53   2.0000      -0.894476       -24.3399
  54   2.0000      -0.878703       -23.9107
  55   2.0000      -0.865035       -23.5388
  56   2.0000      -0.844912       -22.9912
  57   2.0000      -0.837718       -22.7955
  58   2.0000      -0.819357       -22.2958
  59   2.0000      -0.798310       -21.7231
  60   2.0000      -0.776028       -21.1168
  61   2.0000      -0.765227       -20.8229
  62   2.0000      -0.748517       -20.3682
  63   2.0000      -0.724246       -19.7077
  64   2.0000      -0.717553       -19.5256
  65   2.0000      -0.710925       -19.3453
  66   2.0000      -0.706732       -19.2312
  67   2.0000      -0.683262       -18.5925
  68   2.0000      -0.667854       -18.1732
  69   2.0000      -0.660540       -17.9742
  70   2.0000      -0.649363       -17.6701
  71   2.0000      -0.640133       -17.4189
  72   2.0000      -0.628407       -17.0998
  73   2.0000      -0.622033       -16.9264
  74   2.0000      -0.617628       -16.8065
  75   2.0000      -0.610398       -16.6098
  76   2.0000      -0.585475       -15.9316
  77   2.0000      -0.580867       -15.8062
  78   2.0000      -0.574495       -15.6328
  79   2.0000      -0.562891       -15.3170
  80   2.0000      -0.560832       -15.2610
  81   2.0000      -0.556339       -15.1387
  82   2.0000      -0.552536       -15.0353
  83   2.0000      -0.547101       -14.8874
  84   2.0000      -0.543737       -14.7958
  85   2.0000      -0.536864       -14.6088
  86   2.0000      -0.531663       -14.4673
  87   2.0000      -0.527569       -14.3559
  88   2.0000      -0.523554       -14.2466
  89   2.0000      -0.521658       -14.1950
  90   2.0000      -0.514106       -13.9895
  91   2.0000      -0.509819       -13.8729
  92   2.0000      -0.502082       -13.6623
  93   2.0000      -0.484535       -13.1849
  94   2.0000      -0.473961       -12.8971
  95   2.0000      -0.471635       -12.8338
  96   2.0000      -0.469120       -12.7654
  97   2.0000      -0.466823       -12.7029
  98   2.0000      -0.465203       -12.6588
  99   2.0000      -0.461341       -12.5537
 100   2.0000      -0.452402       -12.3105
 101   2.0000      -0.447598       -12.1798
 102   2.0000      -0.440883       -11.9970
 103   2.0000      -0.435817       -11.8592
 104   2.0000      -0.430870       -11.7246
 105   2.0000      -0.417369       -11.3572
 106   2.0000      -0.391623       -10.6566
 107   2.0000      -0.382817       -10.4170
 108   2.0000      -0.377253       -10.2656
 109   2.0000      -0.375750       -10.2247
 110   2.0000      -0.368329       -10.0227
 111   2.0000      -0.364658        -9.9229
 112   2.0000      -0.357989        -9.7414
 113   2.0000      -0.357844        -9.7374
 114   2.0000      -0.347615        -9.4591
 115   2.0000      -0.325484        -8.8569
 116   2.0000      -0.302494        -8.2313
 117   2.0000      -0.293697        -7.9919
 118   2.0000      -0.275603        -7.4996
 119   0.0000      -0.034956        -0.9512
 120   0.0000       0.001926         0.0524
 121   0.0000       0.023765         0.6467
 122   0.0000       0.027163         0.7391
 123   0.0000       0.036441         0.9916

MULLIKEN ATOMIC CHARGES
-----------------------
   0 C :   -0.153136
   1 C :   -0.220171
   2 C :   -0.053267
   3 C :    0.167652
   4 C :   -0.226745
   5 C :   -0.093268
   6 C :   -0.013951
   7 C :    0.181985
   8 N :   -0.303121
   9 C :   -0.243274
  10 C :   -0.079663
  11 C :   -0.282799
  12 C :    0.213047
  13 H :    0.130595
  14 H :    0.235828
  15 H :    0.122539
  16 H :    0.210725
  17 H :    0.114281
  18 H :    0.121144
  19 H :    0.119526
  20 N :   -0.337344
  21 C :    0.084790
  22 C :   -0.202238
  23 S :    0.109180
  24 C :    0.236458
  25 C :    0.134417
  26 S :    0.049405
  27 C :    0.046075
  28 C :   -0.219295
  29 N :   -0.274062
  30 H :    0.179140
  31 H :    0.187572
  32 C :   -0.026401
  33 N :   -0.323154
  34 C :    0.224291
  35 C :    0.123895
  36 N :   -0.237583
  37 C :   -0.000381
  38 C :   -0.225338
  39 C :   -0.060039
  40 C :   -0.181115
  41 C :   -0.071785
  42 H :    0.162329
  43 H :    0.134928
  44 H :    0.142947
  45 H :    0.142156
  46 H :    0.115183
  47 H :    0.138040
Sum of atomic charges:   -0.0000000

LOEWDIN ATOMIC CHARGES
----------------------
   0 C :   -0.158630
   1 C :   -0.104649
   2 C :   -0.081194
   3 C :   -0.145495
   4 C :   -0.133496
   5 C :   -0.142543
   6 C :   -0.041591
   7 C :   -0.144069
   8 N :    0.199914
   9 C :   -0.130756
  10 C :   -0.141665
  11 C :   -0.126093
  12 C :   -0.109722
  13 H :    0.145981
  14 H :    0.192803
  15 H :    0.146256
  16 H :    0.154716
  17 H :    0.142848
  18 H :    0.144437
  19 H :    0.143963
  20 N :    0.133259
  21 C :   -0.290364
  22 C :   -0.340939
  23 S :    0.724681
  24 C :   -0.364270
  25 C :   -0.391494
  26 S :    0.740032
  27 C :   -0.324532
  28 C :   -0.233740
  29 N :    0.106378
  30 H :    0.139139
  31 H :    0.147458
  32 C :   -0.193194
  33 N :    0.160659
  34 C :   -0.134584
  35 C :   -0.167141
  36 N :    0.173419
  37 C :   -0.200340
  38 C :   -0.089596
  39 C :   -0.125945
  40 C :   -0.065614
  41 C :   -0.111511
  42 H :    0.160362
  43 H :    0.151066
  44 H :    0.143588
  45 H :    0.144436
  46 H :    0.143371
  47 H :    0.154401

  Mayer bond orders larger than 0.1
B(  0-C ,  1-C ) :   1.5312 B(  0-C ,  5-C ) :   1.3586 B(  0-C , 19-H ) :   0.9846
B(  1-C ,  2-C ) :   1.2883 B(  1-C , 16-H ) :   0.9176 B(  2-C ,  3-C ) :   1.3743
B(  2-C ,  6-C ) :   1.0651 B(  3-C ,  4-C ) :   1.3115 B(  3-C ,  8-N ) :   1.1216
B(  4-C ,  5-C ) :   1.4853 B(  4-C , 17-H ) :   0.9753 B(  5-C , 18-H ) :   0.9821
B(  6-C ,  7-C ) :   1.3347 B(  6-C , 12-C ) :   1.2270 B(  7-C ,  8-N ) :   1.1483
B(  7-C ,  9-C ) :   1.2816 B(  8-N , 14-H ) :   0.9131 B(  9-C , 10-C ) :   1.4653
B(  9-C , 46-H ) :   0.9795 B( 10-C , 11-C ) :   1.4036 B( 10-C , 15-H ) :   0.9828
B( 11-C , 12-C ) :   1.4335 B( 11-C , 13-H ) :   0.9597 B( 12-C , 27-C ) :   0.8276
B( 20-N , 21-C ) :   1.2258 B( 20-N , 24-C ) :   1.6421 B( 21-C , 22-C ) :   1.6894
B( 21-C , 25-C ) :   0.9749 B( 22-C , 23-S ) :   1.2941 B( 22-C , 30-H ) :   0.9155
B( 23-S , 24-C ) :   1.2875 B( 24-C , 41-C ) :   0.9767 B( 25-C , 26-S ) :   1.3267
B( 25-C , 29-N ) :   1.6269 B( 26-S , 27-C ) :   1.2641 B( 27-C , 28-C ) :   1.5819
B( 28-C , 29-N ) :   1.3117 B( 28-C , 31-H ) :   0.9749 B( 32-C , 33-N ) :   1.6374
B( 32-C , 37-C ) :   1.2451 B( 32-C , 45-H ) :   0.9624 B( 33-N , 34-C ) :   1.1880
B( 34-C , 35-C ) :   1.2911 B( 34-C , 41-C ) :   1.1442 B( 35-C , 36-N ) :   1.2932
B( 35-C , 38-C ) :   1.2547 B( 36-N , 37-C ) :   1.6102 B( 37-C , 44-H ) :   0.9655
B( 38-C , 39-C ) :   1.5238 B( 38-C , 47-H ) :   0.9749 B( 39-C , 40-C ) :   1.2818
B( 39-C , 43-H ) :   0.9889 B( 40-C , 41-C ) :   1.5271 B( 40-C , 42-H ) :   0.9499

Dispersion correction           -0.022336457
FINAL SINGLE POINT ENERGY     -2070.058021993884

DIPOLE MOMENT
-------------
                                X             Y             Z
Electronic contribution:    -15.35324       1.29180      -3.75545
Nuclear contribution   :     15.35597      -1.31291       4.24713
                        -----------------------------------------
Total Dipole Moment    :      0.00273      -0.02112       0.49169
                        -----------------------------------------
Magnitude (a.u.)       :      0.49215
Magnitude (Debye)      :      1.25094

                             ****ORCA TERMINATED NORMALLY****
TOTAL RUN TIME: 0 days 0 hours 12 minutes 50 seconds 377 msec
