                         Program Version 4.0.0 -  RELEASE  -
|  1> #
|  2> !wB97X-D3 def2-TZVP def2/J RIJCOSX Grid5 FinalGrid6 TightSCF
|  3> %pal
|  4>  nprocs 24
|  5> end
|  6> %tddft
|  7>   Mode sTDDFT
|  8>   nroots 2
|  9>   Ethresh 10.0
| 10>   maxcore 5000
| 11>   triplets true
| 12> end
| 13> * xyz 0 1
| 14> C 4.78829552 2.39571790 1.35920444
| 15> C 5.14374682 1.26505827 0.62873112
| 16> C 6.40739814 0.67934727 0.83791807
| 17> C 7.27944137 1.28516651 1.78634169
| 18> C 6.92306204 2.42295941 2.52679141
| 19> C 5.66243236 2.96851177 2.29956102
| 20> C 7.12836680 -0.45526482 0.27680984
| 21> C 8.40851700 -0.45482548 0.90852650
| 22> N 8.47089135 0.58338069 1.81940131
| 23> C 9.41793368 -1.37840969 0.60225896
| 24> C 9.14487608 -2.32420268 -0.38332591
| 25> C 7.90097913 -2.34729676 -1.02566629
| 26> C 6.86898448 -1.44401576 -0.71219327
| 27> H 7.70940007 -3.10204099 -1.78351497
| 28> H 9.27348691 0.81197172 2.39283966
| 29> H 9.90182633 -3.05417291 -0.65616821
| 30> H 4.44104317 0.84165861 -0.08170756
| 31> H 7.60850395 2.86179204 3.24698821
| 32> H 5.35047614 3.84940561 2.85461273
| 33> H 3.81142634 2.84513750 1.20198862
| 34> C -0.29807913 -0.77593508 -0.93067818
| 35> N 0.84013708 -1.23385207 -1.52287693
| 36> C 2.00325287 -0.97248844 -0.88972476
| 37> N 2.07865979 -0.28746117 0.28204526
| 38> C 0.90557922 0.13135615 0.79783060
| 39> N -0.29867483 -0.08027551 0.23905001
| 40> C 3.27477912 -1.43918429 -1.51037527
| 41> N 4.42437695 -1.23120953 -0.82927581
| 42> C 5.57924760 -1.62260646 -1.41886932
| 43> N 5.60108543 -2.23107685 -2.63765452
| 44> C 4.41326580 -2.41291063 -3.24013755
| 45> N 3.22536068 -2.03289069 -2.72916687
| 46> H 4.41079197 -2.90414973 -4.22515290
| 47> H 0.93732195 0.68989213 1.74541317
| 48> C -7.97672891 -0.74299453 -1.36533577
| 49> C -9.31996912 -0.37398887 -1.32013338
| 50> C -9.68560219 0.88298017 -0.83521751
| 51> C -8.70009187 1.77369390 -0.40426991
| 52> C -7.35684382 1.40521599 -0.43989671
| 53> C -6.97868033 0.13456292 -0.90958829
| 54> C -5.54705471 -0.27314786 -0.98932751
| 55> C -4.58265384 0.07733046 0.05828548
| 56> N -3.27458811 -0.12221027 -0.09748937
| 57> C -2.87606034 -0.74559671 -1.25458523
| 58> C -3.83896449 -1.21093810 -2.22338391
| 59> N -5.18325048 -0.93908772 -2.08293051
| 60> C -1.55160103 -1.05788126 -1.60936225
| 61> S -1.53163637 -1.93094831 -3.12358170
| 62> C -3.25053762 -1.88165711 -3.29718356
| 63> C -5.00831345 0.63531748 1.37184299
| 64> C -4.20282795 1.59811823 2.00411412
| 65> C -4.56477201 2.12204620 3.24349401
| 66> C -5.72686428 1.68046016 3.87891497
| 67> C -6.51978114 0.70315219 3.27359217
| 68> C -6.16597159 0.18276750 2.03046037
| 69> H -6.77915254 -0.59218442 1.57733557
| 70> H -7.41529026 0.34280637 3.77331623
| 71> H -6.00862756 2.08840483 4.84620977
| 72> H -3.93833767 2.87361533 3.71746985
| 73> H -3.29570785 1.93415273 1.50858682
| 74> H -6.59543692 2.11129949 -0.11791633
| 75> H -8.97897498 2.75958465 -0.04134954
| 76> H -10.73310099 1.17098379 -0.80087668
| 77> H -10.08347335 -1.06626499 -1.66616103
| 78> H -7.68815481 -1.71961568 -1.74550243
| 79> H 10.37859126 -1.34919049 1.10933055
| 80> H -3.75783288 -2.31817206 -4.14868558
| 81> *
| 82> $new_job
| 83> #
| 84> !wB97X-D3 def2-TZVP def2/J RIJCOSX Grid5 FinalGrid6 TightSCF
| 85> %pal
| 86>  nprocs 24
| 87> end
| 88> %elprop
| 89>    dipole     true
| 90>    quadrupole true
| 91> end
| 92> %tddft
| 93>   Mode sTDDFT
| 94>   nroots 2
| 95>   Ethresh 10.0
| 96>   maxcore 5000
| 97> end
| 98> * xyz 0 1
| 99> C 4.78829552 2.39571790 1.35920444
|100> C 5.14374682 1.26505827 0.62873112
|101> C 6.40739814 0.67934727 0.83791807
|102> C 7.27944137 1.28516651 1.78634169
|103> C 6.92306204 2.42295941 2.52679141
|104> C 5.66243236 2.96851177 2.29956102
|105> C 7.12836680 -0.45526482 0.27680984
|106> C 8.40851700 -0.45482548 0.90852650
|107> N 8.47089135 0.58338069 1.81940131
|108> C 9.41793368 -1.37840969 0.60225896
|109> C 9.14487608 -2.32420268 -0.38332591
|110> C 7.90097913 -2.34729676 -1.02566629
|111> C 6.86898448 -1.44401576 -0.71219327
|112> H 7.70940007 -3.10204099 -1.78351497
|113> H 9.27348691 0.81197172 2.39283966
|114> H 9.90182633 -3.05417291 -0.65616821
|115> H 4.44104317 0.84165861 -0.08170756
|116> H 7.60850395 2.86179204 3.24698821
|117> H 5.35047614 3.84940561 2.85461273
|118> H 3.81142634 2.84513750 1.20198862
|119> C -0.29807913 -0.77593508 -0.93067818
|120> N 0.84013708 -1.23385207 -1.52287693
|121> C 2.00325287 -0.97248844 -0.88972476
|122> N 2.07865979 -0.28746117 0.28204526
|123> C 0.90557922 0.13135615 0.79783060
|124> N -0.29867483 -0.08027551 0.23905001
|125> C 3.27477912 -1.43918429 -1.51037527
|126> N 4.42437695 -1.23120953 -0.82927581
|127> C 5.57924760 -1.62260646 -1.41886932
|128> N 5.60108543 -2.23107685 -2.63765452
|129> C 4.41326580 -2.41291063 -3.24013755
|130> N 3.22536068 -2.03289069 -2.72916687
|131> H 4.41079197 -2.90414973 -4.22515290
|132> H 0.93732195 0.68989213 1.74541317
|133> C -7.97672891 -0.74299453 -1.36533577
|134> C -9.31996912 -0.37398887 -1.32013338
|135> C -9.68560219 0.88298017 -0.83521751
|136> C -8.70009187 1.77369390 -0.40426991
|137> C -7.35684382 1.40521599 -0.43989671
|138> C -6.97868033 0.13456292 -0.90958829
|139> C -5.54705471 -0.27314786 -0.98932751
|140> C -4.58265384 0.07733046 0.05828548
|141> N -3.27458811 -0.12221027 -0.09748937
|142> C -2.87606034 -0.74559671 -1.25458523
|143> C -3.83896449 -1.21093810 -2.22338391
|144> N -5.18325048 -0.93908772 -2.08293051
|145> C -1.55160103 -1.05788126 -1.60936225
|146> S -1.53163637 -1.93094831 -3.12358170
|147> C -3.25053762 -1.88165711 -3.29718356
|148> C -5.00831345 0.63531748 1.37184299
|149> C -4.20282795 1.59811823 2.00411412
|150> C -4.56477201 2.12204620 3.24349401
|151> C -5.72686428 1.68046016 3.87891497
|152> C -6.51978114 0.70315219 3.27359217
|153> C -6.16597159 0.18276750 2.03046037
|154> H -6.77915254 -0.59218442 1.57733557
|155> H -7.41529026 0.34280637 3.77331623
|156> H -6.00862756 2.08840483 4.84620977
|157> H -3.93833767 2.87361533 3.71746985
|158> H -3.29570785 1.93415273 1.50858682
|159> H -6.59543692 2.11129949 -0.11791633
|160> H -8.97897498 2.75958465 -0.04134954
|161> H -10.73310099 1.17098379 -0.80087668
|162> H -10.08347335 -1.06626499 -1.66616103
|163> H -7.68815481 -1.71961568 -1.74550243
|164> H 10.37859126 -1.34919049 1.10933055
|165> H -3.75783288 -2.31817206 -4.14868558
|166> *
|167>
|168>                          ****END OF INPUT****
 Total Charge           Charge          ....    0
 Multiplicity           Mult            ....    1
 Number of Electrons    NEL             ....  316
Dispersion correction           -0.034404915
FINAL SINGLE POINT ENERGY     -2275.557398618831

CARTESIAN COORDINATES (ANGSTROEM)
---------------------------------
  C      4.788296    2.395718    1.359204
  C      5.143747    1.265058    0.628731
  C      6.407398    0.679347    0.837918
  C      7.279441    1.285167    1.786342
  C      6.923062    2.422959    2.526791
  C      5.662432    2.968512    2.299561
  C      7.128367   -0.455265    0.276810
  C      8.408517   -0.454825    0.908527
  N      8.470891    0.583381    1.819401
  C      9.417934   -1.378410    0.602259
  C      9.144876   -2.324203   -0.383326
  C      7.900979   -2.347297   -1.025666
  C      6.868984   -1.444016   -0.712193
  H      7.709400   -3.102041   -1.783515
  H      9.273487    0.811972    2.392840
  H      9.901826   -3.054173   -0.656168
  H      4.441043    0.841659   -0.081708
  H      7.608504    2.861792    3.246988
  H      5.350476    3.849406    2.854613
  H      3.811426    2.845137    1.201989
  C     -0.298079   -0.775935   -0.930678
  N      0.840137   -1.233852   -1.522877
  C      2.003253   -0.972488   -0.889725
  N      2.078660   -0.287461    0.282045
  C      0.905579    0.131356    0.797831
  N     -0.298675   -0.080276    0.239050
  C      3.274779   -1.439184   -1.510375
  N      4.424377   -1.231210   -0.829276
  C      5.579248   -1.622606   -1.418869
  N      5.601085   -2.231077   -2.637655
  C      4.413266   -2.412911   -3.240138
  N      3.225361   -2.032891   -2.729167
  H      4.410792   -2.904150   -4.225153
  H      0.937322    0.689892    1.745413
  C     -7.976729   -0.742995   -1.365336
  C     -9.319969   -0.373989   -1.320133
  C     -9.685602    0.882980   -0.835218
  C     -8.700092    1.773694   -0.404270
  C     -7.356844    1.405216   -0.439897
  C     -6.978680    0.134563   -0.909588
  C     -5.547055   -0.273148   -0.989328
  C     -4.582654    0.077330    0.058285
  N     -3.274588   -0.122210   -0.097489
  C     -2.876060   -0.745597   -1.254585
  C     -3.838964   -1.210938   -2.223384
  N     -5.183250   -0.939088   -2.082931
  C     -1.551601   -1.057881   -1.609362
  S     -1.531636   -1.930948   -3.123582
  C     -3.250538   -1.881657   -3.297184
  C     -5.008313    0.635317    1.371843
  C     -4.202828    1.598118    2.004114
  C     -4.564772    2.122046    3.243494
  C     -5.726864    1.680460    3.878915
  C     -6.519781    0.703152    3.273592
  C     -6.165972    0.182767    2.030460
  H     -6.779153   -0.592184    1.577336
  H     -7.415290    0.342806    3.773316
  H     -6.008628    2.088405    4.846210
  H     -3.938338    2.873615    3.717470
  H     -3.295708    1.934153    1.508587
  H     -6.595437    2.111299   -0.117916
  H     -8.978975    2.759585   -0.041350
  H    -10.733101    1.170984   -0.800877
  H    -10.083473   -1.066265   -1.666161
  H     -7.688155   -1.719616   -1.745502
  H     10.378591   -1.349190    1.109331
  H     -3.757833   -2.318172   -4.148686

 Multiplicity           Mult            ....    1
 Number of Electrons    NEL             ....  316
 Basis Dimension        Dim             .... 1558

ORBITAL ENERGIES
----------------

  NO   OCC          E(Eh)            E(eV)
   0   2.0000     -89.008646     -2422.0484
   1   2.0000     -14.464634      -393.6027
   2   2.0000     -14.450263      -393.2116
   3   2.0000     -14.445772      -393.0894
   4   2.0000     -14.444687      -393.0599
   5   2.0000     -14.443079      -393.0162
   6   2.0000     -14.442314      -392.9953
   7   2.0000     -14.441988      -392.9865
   8   2.0000     -14.440792      -392.9539
   9   2.0000     -14.440065      -392.9341
  10   2.0000     -10.391903      -282.7780
  11   2.0000     -10.387892      -282.6689
  12   2.0000     -10.387608      -282.6612
  13   2.0000     -10.385154      -282.5944
  14   2.0000     -10.373954      -282.2896
  15   2.0000     -10.373033      -282.2646
  16   2.0000     -10.354428      -281.7583
  17   2.0000     -10.353033      -281.7203
  18   2.0000     -10.339946      -281.3642
  19   2.0000     -10.334700      -281.2215
  20   2.0000     -10.333778      -281.1964
  21   2.0000     -10.332190      -281.1532
  22   2.0000     -10.327334      -281.0211
  23   2.0000     -10.320817      -280.8437
  24   2.0000     -10.305109      -280.4163
  25   2.0000     -10.304150      -280.3902
  26   2.0000     -10.303026      -280.3596
  27   2.0000     -10.298763      -280.2436
  28   2.0000     -10.293435      -280.0986
  29   2.0000     -10.293149      -280.0908
  30   2.0000     -10.292664      -280.0776
  31   2.0000     -10.291643      -280.0499
  32   2.0000     -10.291257      -280.0393
  33   2.0000     -10.290904      -280.0297
  34   2.0000     -10.289880      -280.0019
  35   2.0000     -10.289684      -279.9965
  36   2.0000     -10.289459      -279.9904
  37   2.0000     -10.288813      -279.9728
  38   2.0000     -10.288152      -279.9548
  39   2.0000     -10.287092      -279.9260
  40   2.0000     -10.283512      -279.8286
  41   2.0000     -10.282781      -279.8087
  42   2.0000     -10.279782      -279.7271
  43   2.0000     -10.279216      -279.7117
  44   2.0000     -10.272136      -279.5190
  45   2.0000     -10.266118      -279.3553
  46   2.0000      -8.103469      -220.5066
  47   2.0000      -6.056373      -164.8023
  48   2.0000      -6.052150      -164.6874
  49   2.0000      -6.051621      -164.6730
  50   2.0000      -1.147979       -31.2381
  51   2.0000      -1.134286       -30.8655
  52   2.0000      -1.104736       -30.0614
  53   2.0000      -1.101940       -29.9853
  54   2.0000      -1.038248       -28.2522
  55   2.0000      -1.033325       -28.1182
  56   2.0000      -1.028672       -27.9916
  57   2.0000      -1.019056       -27.7299
  58   2.0000      -1.007080       -27.4040
  59   2.0000      -1.001803       -27.2605
  60   2.0000      -0.983141       -26.7526
  61   2.0000      -0.979457       -26.6524
  62   2.0000      -0.968930       -26.3659
  63   2.0000      -0.957508       -26.0551
  64   2.0000      -0.912565       -24.8322
  65   2.0000      -0.898702       -24.4549
  66   2.0000      -0.888285       -24.1715
  67   2.0000      -0.878754       -23.9121
  68   2.0000      -0.871698       -23.7201
  69   2.0000      -0.867971       -23.6187
  70   2.0000      -0.866285       -23.5728
  71   2.0000      -0.851574       -23.1725
  72   2.0000      -0.846893       -23.0451
  73   2.0000      -0.840254       -22.8645
  74   2.0000      -0.834048       -22.6956
  75   2.0000      -0.801476       -21.8093
  76   2.0000      -0.788197       -21.4479
  77   2.0000      -0.787115       -21.4185
  78   2.0000      -0.772808       -21.0292
  79   2.0000      -0.753645       -20.5077
  80   2.0000      -0.743425       -20.2296
  81   2.0000      -0.727984       -19.8095
  82   2.0000      -0.719147       -19.5690
  83   2.0000      -0.717438       -19.5225
  84   2.0000      -0.708806       -19.2876
  85   2.0000      -0.707991       -19.2654
  86   2.0000      -0.700964       -19.0742
  87   2.0000      -0.697274       -18.9738
  88   2.0000      -0.684970       -18.6390
  89   2.0000      -0.665487       -18.1088
  90   2.0000      -0.659098       -17.9350
  91   2.0000      -0.645939       -17.5769
  92   2.0000      -0.640872       -17.4390
  93   2.0000      -0.635847       -17.3023
  94   2.0000      -0.630264       -17.1503
  95   2.0000      -0.623259       -16.9597
  96   2.0000      -0.612336       -16.6625
  97   2.0000      -0.608125       -16.5479
  98   2.0000      -0.588881       -16.0243
  99   2.0000      -0.587787       -15.9945
 100   2.0000      -0.580921       -15.8077
 101   2.0000      -0.577100       -15.7037
 102   2.0000      -0.569849       -15.5064
 103   2.0000      -0.562613       -15.3095
 104   2.0000      -0.559570       -15.2267
 105   2.0000      -0.555166       -15.1068
 106   2.0000      -0.553731       -15.0678
 107   2.0000      -0.553127       -15.0513
 108   2.0000      -0.550689       -14.9850
 109   2.0000      -0.542684       -14.7672
 110   2.0000      -0.539223       -14.6730
 111   2.0000      -0.537653       -14.6303
 112   2.0000      -0.532115       -14.4796
 113   2.0000      -0.528605       -14.3841
 114   2.0000      -0.526472       -14.3260
 115   2.0000      -0.525017       -14.2864
 116   2.0000      -0.524497       -14.2723
 117   2.0000      -0.520301       -14.1581
 118   2.0000      -0.520128       -14.1534
 119   2.0000      -0.516766       -14.0619
 120   2.0000      -0.504234       -13.7209
 121   2.0000      -0.492951       -13.4139
 122   2.0000      -0.490564       -13.3489
 123   2.0000      -0.487098       -13.2546
 124   2.0000      -0.480140       -13.0653
 125   2.0000      -0.470358       -12.7991
 126   2.0000      -0.466328       -12.6894
 127   2.0000      -0.464671       -12.6443
 128   2.0000      -0.462377       -12.5819
 129   2.0000      -0.461023       -12.5451
 130   2.0000      -0.453472       -12.3396
 131   2.0000      -0.450418       -12.2565
 132   2.0000      -0.448113       -12.1938
 133   2.0000      -0.444550       -12.0968
 134   2.0000      -0.443073       -12.0566
 135   2.0000      -0.440739       -11.9931
 136   2.0000      -0.439245       -11.9525
 137   2.0000      -0.437584       -11.9073
 138   2.0000      -0.428099       -11.6492
 139   2.0000      -0.419909       -11.4263
 140   2.0000      -0.419344       -11.4109
 141   2.0000      -0.411769       -11.2048
 142   2.0000      -0.394455       -10.7337
 143   2.0000      -0.378103       -10.2887
 144   2.0000      -0.372531       -10.1371
 145   2.0000      -0.371843       -10.1184
 146   2.0000      -0.369132       -10.0446
 147   2.0000      -0.365849        -9.9553
 148   2.0000      -0.362720        -9.8701
 149   2.0000      -0.352502        -9.5921
 150   2.0000      -0.350595        -9.5402
 151   2.0000      -0.343743        -9.3537
 152   2.0000      -0.340464        -9.2645
 153   2.0000      -0.339125        -9.2281
 154   2.0000      -0.312025        -8.4906
 155   2.0000      -0.306933        -8.3521
 156   2.0000      -0.296151        -8.0587
 157   2.0000      -0.285949        -7.7811
 158   0.0000      -0.047280        -1.2866
 159   0.0000      -0.029296        -0.7972
 160   0.0000      -0.005121        -0.1394
 161   0.0000       0.009330         0.2539
 162   0.0000       0.025085         0.6826

MULLIKEN ATOMIC CHARGES
-----------------------
   0 C :   -0.191519
   1 C :   -0.080544
   2 C :   -0.003671
   3 C :    0.178907
   4 C :   -0.246659
   5 C :   -0.074211
   6 C :   -0.049018
   7 C :    0.188598
   8 N :   -0.305709
   9 C :   -0.222136
  10 C :   -0.077950
  11 C :   -0.247249
  12 C :    0.140029
  13 H :    0.139957
  14 H :    0.235256
  15 H :    0.123834
  16 H :    0.131557
  17 H :    0.111077
  18 H :    0.118671
  19 H :    0.109390
  20 C :    0.311743
  21 N :   -0.293756
  22 C :    0.227908
  23 N :   -0.288507
  24 C :    0.105041
  25 N :   -0.256232
  26 C :    0.236106
  27 N :   -0.315979
  28 C :    0.289271
  29 N :   -0.305423
  30 C :    0.108075
  31 N :   -0.268621
  32 H :    0.151424
  33 H :    0.152492
  34 C :   -0.205555
  35 C :   -0.130498
  36 C :   -0.105637
  37 C :   -0.143178
  38 C :   -0.203096
  39 C :    0.045729
  40 C :    0.259978
  41 C :    0.243041
  42 N :   -0.247696
  43 C :    0.148741
  44 C :    0.065677
  45 N :   -0.271726
  46 C :   -0.121588
  47 S :    0.160707
  48 C :   -0.206035
  49 C :    0.014570
  50 C :   -0.192062
  51 C :   -0.137869
  52 C :   -0.100794
  53 C :   -0.142423
  54 C :   -0.210316
  55 H :    0.161265
  56 H :    0.124848
  57 H :    0.126988
  58 H :    0.124228
  59 H :    0.144384
  60 H :    0.158640
  61 H :    0.125682
  62 H :    0.127374
  63 H :    0.124248
  64 H :    0.134527
  65 H :    0.118346
  66 H :    0.177345
Sum of atomic charges:   -0.0000000

LOEWDIN ATOMIC CHARGES
----------------------
   0 C :   -0.162004
   1 C :   -0.089373
   2 C :   -0.076817
   3 C :   -0.145350
   4 C :   -0.139000
   5 C :   -0.142022
   6 C :   -0.027619
   7 C :   -0.145575
   8 N :    0.199627
   9 C :   -0.117329
  10 C :   -0.143817
  11 C :   -0.100186
  12 C :   -0.078427
  13 H :    0.154660
  14 H :    0.192668
  15 H :    0.146401
  16 H :    0.151702
  17 H :    0.141761
  18 H :    0.143368
  19 H :    0.141717
  20 C :   -0.252432
  21 N :    0.160305
  22 C :   -0.222475
  23 N :    0.130390
  24 C :   -0.226285
  25 N :    0.136746
  26 C :   -0.220513
  27 N :    0.177052
  28 C :   -0.191045
  29 N :    0.126216
  30 C :   -0.227762
  31 N :    0.131692
  32 H :    0.141823
  33 H :    0.142857
  34 C :   -0.093415
  35 C :   -0.139358
  36 C :   -0.135242
  37 C :   -0.138526
  38 C :   -0.090682
  39 C :   -0.118136
  40 C :   -0.122478
  41 C :   -0.116132
  42 N :    0.215487
  43 C :   -0.186587
  44 C :   -0.242836
  45 N :    0.201304
  46 C :   -0.302976
  47 S :    0.810489
  48 C :   -0.327960
  49 C :   -0.116783
  50 C :   -0.087350
  51 C :   -0.139201
  52 C :   -0.134154
  53 C :   -0.139403
  54 C :   -0.090296
  55 H :    0.157938
  56 H :    0.146543
  57 H :    0.145128
  58 H :    0.145933
  59 H :    0.156494
  60 H :    0.157806
  61 H :    0.146776
  62 H :    0.145201
  63 H :    0.145938
  64 H :    0.153450
  65 H :    0.144824
  66 H :    0.137247

  Mayer bond orders larger than 0.1
B(  0-C ,  1-C ) :   1.5341 B(  0-C ,  5-C ) :   1.3467 B(  0-C , 19-H ) :   0.9912
B(  1-C ,  2-C ) :   1.2723 B(  1-C , 16-H ) :   0.9371 B(  2-C ,  3-C ) :   1.3381
B(  2-C ,  6-C ) :   1.0817 B(  3-C ,  4-C ) :   1.2993 B(  3-C ,  8-N ) :   1.1181
B(  4-C ,  5-C ) :   1.4851 B(  4-C , 17-H ) :   0.9767 B(  5-C , 18-H ) :   0.9825
B(  6-C ,  7-C ) :   1.3189 B(  6-C , 12-C ) :   1.2589 B(  7-C ,  8-N ) :   1.1455
B(  7-C ,  9-C ) :   1.2902 B(  8-N , 14-H ) :   0.9140 B(  9-C , 10-C ) :   1.4503
B(  9-C , 65-H ) :   0.9736 B( 10-C , 11-C ) :   1.3940 B( 10-C , 15-H ) :   0.9865
B( 11-C , 12-C ) :   1.4333 B( 11-C , 13-H ) :   0.9564 B( 12-C , 28-C ) :   0.9765
B( 20-C , 21-N ) :   1.4212 B( 20-C , 25-N ) :   1.4610 B( 20-C , 46-C ) :   0.9790
B( 21-N , 22-C ) :   1.5268 B( 22-C , 23-N ) :   1.4266 B( 22-C , 26-C ) :   1.0407
B( 23-N , 24-C ) :   1.4552 B( 24-C , 25-N ) :   1.4853 B( 24-C , 33-H ) :   0.9656
B( 26-C , 27-N ) :   1.4574 B( 26-C , 31-N ) :   1.4757 B( 27-N , 28-C ) :   1.4268
B( 28-C , 29-N ) :   1.4039 B( 29-N , 30-C ) :   1.4928 B( 30-C , 31-N ) :   1.4586
B( 30-C , 32-H ) :   0.9643 B( 34-C , 35-C ) :   1.4332 B( 34-C , 39-C ) :   1.4086
B( 34-C , 64-H ) :   0.9736 B( 35-C , 36-C ) :   1.3898 B( 35-C , 63-H ) :   0.9873
B( 36-C , 37-C ) :   1.3823 B( 36-C , 62-H ) :   0.9802 B( 37-C , 38-C ) :   1.4551
B( 37-C , 61-H ) :   0.9852 B( 38-C , 39-C ) :   1.3369 B( 38-C , 60-H ) :   0.9699
B( 39-C , 40-C ) :   0.9036 B( 40-C , 41-C ) :   1.0755 B( 40-C , 45-N ) :   1.6194
B( 41-C , 42-N ) :   1.6673 B( 41-C , 49-C ) :   0.8948 B( 42-N , 43-C ) :   1.2819
B( 43-C , 44-C ) :   1.2003 B( 43-C , 46-C ) :   1.2847 B( 44-C , 45-N ) :   1.2760
B( 44-C , 48-C ) :   1.5177 B( 46-C , 47-S ) :   1.3694 B( 47-S , 48-C ) :   1.3667
B( 48-C , 66-H ) :   0.9208 B( 49-C , 50-C ) :   1.4127 B( 49-C , 54-C ) :   1.3313
B( 50-C , 51-C ) :   1.4324 B( 50-C , 59-H ) :   0.9679 B( 51-C , 52-C ) :   1.3870
B( 51-C , 58-H ) :   0.9883 B( 52-C , 53-C ) :   1.3818 B( 52-C , 57-H ) :   0.9809
B( 53-C , 54-C ) :   1.4617 B( 53-C , 56-H ) :   0.9848 B( 54-C , 55-H ) :   0.9673

Dispersion correction           -0.034404915
FINAL SINGLE POINT ENERGY     -2275.557398521928

DIPOLE MOMENT
-------------
                                X             Y             Z
Electronic contribution:     14.42190     -13.15467     -16.26887
Nuclear contribution   :    -14.70604      13.48333      16.98949
                        -----------------------------------------
Total Dipole Moment    :     -0.28414       0.32866       0.72062
                        -----------------------------------------
Magnitude (a.u.)       :      0.84145
Magnitude (Debye)      :      2.13881

                             ****ORCA TERMINATED NORMALLY****
TOTAL RUN TIME: 0 days 0 hours 24 minutes 30 seconds 225 msec
