                         Program Version 4.0.0 -  RELEASE  -
|  1> #
|  2> !wB97X-D3 def2-TZVP def2/J RIJCOSX Grid5 FinalGrid6 TightSCF
|  3> %pal
|  4>  nprocs 24
|  5> end
|  6> %tddft
|  7>   Mode sTDDFT
|  8>   nroots 2
|  9>   Ethresh 10.0
| 10>   maxcore 5000
| 11>   triplets true
| 12> end
| 13> * xyz 0 1
| 14> C 4.80250001 0.36041831 -2.89644062
| 15> C 4.15547654 0.12446876 -1.68615848
| 16> C 4.91606211 -0.26024941 -0.56537739
| 17> C 6.32764842 -0.37005322 -0.71204163
| 18> C 6.98135212 -0.13858731 -1.93200569
| 19> C 6.19617566 0.22492453 -3.02285322
| 20> C 4.62120081 -0.55851272 0.82795740
| 21> C 5.87935604 -0.80649121 1.45248032
| 22> N 6.88441898 -0.70793838 0.50889946
| 23> C 6.01389523 -1.08066793 2.82170480
| 24> C 4.85206285 -1.09294451 3.58996396
| 25> C 3.60046674 -0.86060408 3.00481325
| 26> C 3.44819910 -0.61056933 1.62810633
| 27> H 2.71184008 -0.89998681 3.62894207
| 28> H 7.87326681 -0.82651852 0.69211625
| 29> H 4.91195796 -1.29288838 4.65586539
| 30> H 3.07910967 0.24477576 -1.62031413
| 31> H 8.06043993 -0.23327465 -2.01817141
| 32> H 6.66695948 0.41360427 -3.98390661
| 33> H 4.21896800 0.65653788 -3.76372442
| 34> C -3.65262994 0.61455048 0.64731934
| 35> N -3.28148293 0.91690682 1.90280450
| 36> O -1.95296639 0.65787440 1.99792102
| 37> C -1.48421201 0.20635180 0.82012314
| 38> C -2.51973729 0.14948611 -0.08896398
| 39> C -0.06798335 -0.11864029 0.72496782
| 40> N 0.47837619 -0.57897036 -0.41058397
| 41> O 1.79872689 -0.77268611 -0.15287769
| 42> C 2.08491691 -0.43943398 1.11455142
| 43> C 0.92500008 -0.01950901 1.74090284
| 44> H 0.80299042 0.32790352 2.75624475
| 45> H -2.46487923 -0.15625074 -1.12277231
| 46> C -5.32080507 -1.46942223 -2.58698629
| 47> N -4.79255987 -0.83427647 -1.56247109
| 48> C -5.57965355 0.09553543 -0.89646193
| 49> C -6.95862474 0.30703470 -1.32551308
| 50> N -7.47017298 -0.38535982 -2.41960744
| 51> C -6.67082049 -1.23422436 -3.02718712
| 52> C -5.04058621 0.79563943 0.20143408
| 53> C -5.89872931 1.72413589 0.90326168
| 54> C -7.29510952 1.92409648 0.46445172
| 55> C -7.79234042 1.19955319 -0.65702688
| 56> N -8.03460885 2.79624171 1.14899868
| 57> S -6.93473530 3.47589274 2.47950694
| 58> N -5.48713495 2.44430357 1.94145915
| 59> H -7.06699007 -1.78229331 -3.89210752
| 60> H -4.69655105 -2.20813976 -3.10641299
| 61> H 6.98802250 -1.26576864 3.26537216
| 62> H -8.81607597 1.34402577 -0.99040254
| 63> *
| 64> $new_job
| 65> #
| 66> !wB97X-D3 def2-TZVP def2/J RIJCOSX Grid5 FinalGrid6 TightSCF
| 67> %pal
| 68>  nprocs 24
| 69> end
| 70> %elprop
| 71>    dipole     true
| 72>    quadrupole true
| 73> end
| 74> %tddft
| 75>   Mode sTDDFT
| 76>   nroots 2
| 77>   Ethresh 10.0
| 78>   maxcore 5000
| 79> end
| 80> * xyz 0 1
| 81> C 4.80250001 0.36041831 -2.89644062
| 82> C 4.15547654 0.12446876 -1.68615848
| 83> C 4.91606211 -0.26024941 -0.56537739
| 84> C 6.32764842 -0.37005322 -0.71204163
| 85> C 6.98135212 -0.13858731 -1.93200569
| 86> C 6.19617566 0.22492453 -3.02285322
| 87> C 4.62120081 -0.55851272 0.82795740
| 88> C 5.87935604 -0.80649121 1.45248032
| 89> N 6.88441898 -0.70793838 0.50889946
| 90> C 6.01389523 -1.08066793 2.82170480
| 91> C 4.85206285 -1.09294451 3.58996396
| 92> C 3.60046674 -0.86060408 3.00481325
| 93> C 3.44819910 -0.61056933 1.62810633
| 94> H 2.71184008 -0.89998681 3.62894207
| 95> H 7.87326681 -0.82651852 0.69211625
| 96> H 4.91195796 -1.29288838 4.65586539
| 97> H 3.07910967 0.24477576 -1.62031413
| 98> H 8.06043993 -0.23327465 -2.01817141
| 99> H 6.66695948 0.41360427 -3.98390661
|100> H 4.21896800 0.65653788 -3.76372442
|101> C -3.65262994 0.61455048 0.64731934
|102> N -3.28148293 0.91690682 1.90280450
|103> O -1.95296639 0.65787440 1.99792102
|104> C -1.48421201 0.20635180 0.82012314
|105> C -2.51973729 0.14948611 -0.08896398
|106> C -0.06798335 -0.11864029 0.72496782
|107> N 0.47837619 -0.57897036 -0.41058397
|108> O 1.79872689 -0.77268611 -0.15287769
|109> C 2.08491691 -0.43943398 1.11455142
|110> C 0.92500008 -0.01950901 1.74090284
|111> H 0.80299042 0.32790352 2.75624475
|112> H -2.46487923 -0.15625074 -1.12277231
|113> C -5.32080507 -1.46942223 -2.58698629
|114> N -4.79255987 -0.83427647 -1.56247109
|115> C -5.57965355 0.09553543 -0.89646193
|116> C -6.95862474 0.30703470 -1.32551308
|117> N -7.47017298 -0.38535982 -2.41960744
|118> C -6.67082049 -1.23422436 -3.02718712
|119> C -5.04058621 0.79563943 0.20143408
|120> C -5.89872931 1.72413589 0.90326168
|121> C -7.29510952 1.92409648 0.46445172
|122> C -7.79234042 1.19955319 -0.65702688
|123> N -8.03460885 2.79624171 1.14899868
|124> S -6.93473530 3.47589274 2.47950694
|125> N -5.48713495 2.44430357 1.94145915
|126> H -7.06699007 -1.78229331 -3.89210752
|127> H -4.69655105 -2.20813976 -3.10641299
|128> H 6.98802250 -1.26576864 3.26537216
|129> H -8.81607597 1.34402577 -0.99040254
|130> *
|131>
|132>                          ****END OF INPUT****
 Total Charge           Charge          ....    0
 Multiplicity           Mult            ....    1
 Number of Electrons    NEL             ....  250
Dispersion correction           -0.022722012
FINAL SINGLE POINT ENERGY     -1930.449218898185

CARTESIAN COORDINATES (ANGSTROEM)
---------------------------------
  C      4.802500    0.360418   -2.896441
  C      4.155477    0.124469   -1.686158
  C      4.916062   -0.260249   -0.565377
  C      6.327648   -0.370053   -0.712042
  C      6.981352   -0.138587   -1.932006
  C      6.196176    0.224925   -3.022853
  C      4.621201   -0.558513    0.827957
  C      5.879356   -0.806491    1.452480
  N      6.884419   -0.707938    0.508899
  C      6.013895   -1.080668    2.821705
  C      4.852063   -1.092945    3.589964
  C      3.600467   -0.860604    3.004813
  C      3.448199   -0.610569    1.628106
  H      2.711840   -0.899987    3.628942
  H      7.873267   -0.826519    0.692116
  H      4.911958   -1.292888    4.655865
  H      3.079110    0.244776   -1.620314
  H      8.060440   -0.233275   -2.018171
  H      6.666959    0.413604   -3.983907
  H      4.218968    0.656538   -3.763724
  C     -3.652630    0.614550    0.647319
  N     -3.281483    0.916907    1.902805
  O     -1.952966    0.657874    1.997921
  C     -1.484212    0.206352    0.820123
  C     -2.519737    0.149486   -0.088964
  C     -0.067983   -0.118640    0.724968
  N      0.478376   -0.578970   -0.410584
  O      1.798727   -0.772686   -0.152878
  C      2.084917   -0.439434    1.114551
  C      0.925000   -0.019509    1.740903
  H      0.802990    0.327904    2.756245
  H     -2.464879   -0.156251   -1.122772
  C     -5.320805   -1.469422   -2.586986
  N     -4.792560   -0.834276   -1.562471
  C     -5.579654    0.095535   -0.896462
  C     -6.958625    0.307035   -1.325513
  N     -7.470173   -0.385360   -2.419607
  C     -6.670820   -1.234224   -3.027187
  C     -5.040586    0.795639    0.201434
  C     -5.898729    1.724136    0.903262
  C     -7.295110    1.924096    0.464452
  C     -7.792340    1.199553   -0.657027
  N     -8.034609    2.796242    1.148999
  S     -6.934735    3.475893    2.479507
  N     -5.487135    2.444304    1.941459
  H     -7.066990   -1.782293   -3.892108
  H     -4.696551   -2.208140   -3.106413
  H      6.988022   -1.265769    3.265372
  H     -8.816076    1.344026   -0.990403

 Multiplicity           Mult            ....    1
 Number of Electrons    NEL             ....  250
 Basis Dimension        Dim             .... 1200

ORBITAL ENERGIES
----------------

  NO   OCC          E(Eh)            E(eV)
   0   2.0000     -89.041194     -2422.9341
   1   2.0000     -19.338823      -526.2361
   2   2.0000     -19.335971      -526.1585
   3   2.0000     -14.486315      -394.1927
   4   2.0000     -14.484348      -394.1392
   5   2.0000     -14.482552      -394.0903
   6   2.0000     -14.478759      -393.9871
   7   2.0000     -14.472931      -393.8285
   8   2.0000     -14.466573      -393.6555
   9   2.0000     -14.465754      -393.6332
  10   2.0000     -10.367943      -282.1261
  11   2.0000     -10.363819      -282.0139
  12   2.0000     -10.360372      -281.9200
  13   2.0000     -10.360352      -281.9195
  14   2.0000     -10.357838      -281.8511
  15   2.0000     -10.356940      -281.8267
  16   2.0000     -10.355824      -281.7963
  17   2.0000     -10.355668      -281.7921
  18   2.0000     -10.344139      -281.4783
  19   2.0000     -10.340321      -281.3744
  20   2.0000     -10.337907      -281.3087
  21   2.0000     -10.335843      -281.2526
  22   2.0000     -10.329301      -281.0746
  23   2.0000     -10.320181      -280.8264
  24   2.0000     -10.319582      -280.8101
  25   2.0000     -10.305546      -280.4282
  26   2.0000     -10.298783      -280.2441
  27   2.0000     -10.298781      -280.2441
  28   2.0000     -10.296175      -280.1732
  29   2.0000     -10.294646      -280.1316
  30   2.0000     -10.293537      -280.1014
  31   2.0000     -10.293337      -280.0959
  32   2.0000     -10.288299      -279.9589
  33   2.0000     -10.287011      -279.9238
  34   2.0000     -10.284285      -279.8496
  35   2.0000     -10.275797      -279.6186
  36   2.0000      -8.129537      -221.2159
  37   2.0000      -6.085150      -165.5854
  38   2.0000      -6.078697      -165.4098
  39   2.0000      -6.075431      -165.3209
  40   2.0000      -1.287537       -35.0357
  41   2.0000      -1.282472       -34.8978
  42   2.0000      -1.119662       -30.4676
  43   2.0000      -1.110188       -30.2098
  44   2.0000      -1.094361       -29.7791
  45   2.0000      -1.049595       -28.5609
  46   2.0000      -1.015855       -27.6428
  47   2.0000      -1.006189       -27.3798
  48   2.0000      -0.991487       -26.9797
  49   2.0000      -0.983140       -26.7526
  50   2.0000      -0.968604       -26.3571
  51   2.0000      -0.966307       -26.2946
  52   2.0000      -0.935673       -25.4610
  53   2.0000      -0.915338       -24.9076
  54   2.0000      -0.904638       -24.6165
  55   2.0000      -0.885149       -24.0861
  56   2.0000      -0.883093       -24.0302
  57   2.0000      -0.874076       -23.7848
  58   2.0000      -0.849223       -23.1085
  59   2.0000      -0.843538       -22.9538
  60   2.0000      -0.818331       -22.2679
  61   2.0000      -0.780611       -21.2415
  62   2.0000      -0.777781       -21.1645
  63   2.0000      -0.767713       -20.8905
  64   2.0000      -0.759170       -20.6581
  65   2.0000      -0.746906       -20.3243
  66   2.0000      -0.737862       -20.0783
  67   2.0000      -0.721782       -19.6407
  68   2.0000      -0.719952       -19.5909
  69   2.0000      -0.711516       -19.3613
  70   2.0000      -0.694013       -18.8851
  71   2.0000      -0.671766       -18.2797
  72   2.0000      -0.664841       -18.0912
  73   2.0000      -0.650879       -17.7113
  74   2.0000      -0.646863       -17.6020
  75   2.0000      -0.636821       -17.3288
  76   2.0000      -0.630711       -17.1625
  77   2.0000      -0.618234       -16.8230
  78   2.0000      -0.610391       -16.6096
  79   2.0000      -0.606720       -16.5097
  80   2.0000      -0.597928       -16.2705
  81   2.0000      -0.591228       -16.0881
  82   2.0000      -0.580658       -15.8005
  83   2.0000      -0.571096       -15.5403
  84   2.0000      -0.568692       -15.4749
  85   2.0000      -0.565653       -15.3922
  86   2.0000      -0.564265       -15.3544
  87   2.0000      -0.556685       -15.1482
  88   2.0000      -0.550839       -14.9891
  89   2.0000      -0.549949       -14.9649
  90   2.0000      -0.543506       -14.7896
  91   2.0000      -0.535552       -14.5731
  92   2.0000      -0.532361       -14.4863
  93   2.0000      -0.531904       -14.4739
  94   2.0000      -0.526009       -14.3134
  95   2.0000      -0.516297       -14.0492
  96   2.0000      -0.506935       -13.7944
  97   2.0000      -0.505112       -13.7448
  98   2.0000      -0.497163       -13.5285
  99   2.0000      -0.489909       -13.3311
 100   2.0000      -0.475366       -12.9354
 101   2.0000      -0.473444       -12.8831
 102   2.0000      -0.470510       -12.8032
 103   2.0000      -0.469716       -12.7816
 104   2.0000      -0.448190       -12.1959
 105   2.0000      -0.446546       -12.1511
 106   2.0000      -0.444144       -12.0858
 107   2.0000      -0.438395       -11.9293
 108   2.0000      -0.433154       -11.7867
 109   2.0000      -0.430166       -11.7054
 110   2.0000      -0.427580       -11.6351
 111   2.0000      -0.424860       -11.5610
 112   2.0000      -0.413625       -11.2553
 113   2.0000      -0.410999       -11.1838
 114   2.0000      -0.395109       -10.7515
 115   2.0000      -0.393243       -10.7007
 116   2.0000      -0.382680       -10.4132
 117   2.0000      -0.373769       -10.1708
 118   2.0000      -0.367080        -9.9888
 119   2.0000      -0.356643        -9.7048
 120   2.0000      -0.341373        -9.2892
 121   2.0000      -0.331890        -9.0312
 122   2.0000      -0.305685        -8.3181
 123   2.0000      -0.303310        -8.2535
 124   2.0000      -0.292088        -7.9481
 125   0.0000      -0.083677        -2.2770
 126   0.0000      -0.000724        -0.0197
 127   0.0000       0.006065         0.1650
 128   0.0000       0.020497         0.5578
 129   0.0000       0.024234         0.6594

MULLIKEN ATOMIC CHARGES
-----------------------
   0 C :   -0.172463
   1 C :   -0.132324
   2 C :   -0.048919
   3 C :    0.170217
   4 C :   -0.242441
   5 C :   -0.076047
   6 C :   -0.026543
   7 C :    0.182127
   8 N :   -0.301843
   9 C :   -0.230054
  10 C :   -0.085448
  11 C :   -0.288537
  12 C :    0.054795
  13 H :    0.126874
  14 H :    0.237065
  15 H :    0.126133
  16 H :    0.149491
  17 H :    0.114223
  18 H :    0.123976
  19 H :    0.119588
  20 C :    0.269867
  21 N :   -0.135832
  22 O :   -0.123594
  23 C :    0.222644
  24 C :   -0.281852
  25 C :    0.134479
  26 N :   -0.177885
  27 O :   -0.131402
  28 C :    0.328244
  29 C :   -0.267085
  30 H :    0.177149
  31 H :    0.173425
  32 C :   -0.013622
  33 N :   -0.299676
  34 C :    0.111817
  35 C :    0.159887
  36 N :   -0.229475
  37 C :   -0.000106
  38 C :    0.033748
  39 C :    0.038954
  40 C :    0.135567
  41 C :   -0.285252
  42 N :   -0.230135
  43 S :    0.225082
  44 N :   -0.207303
  45 H :    0.148600
  46 H :    0.148960
  47 H :    0.122329
  48 H :    0.152594
Sum of atomic charges:   -0.0000000

LOEWDIN ATOMIC CHARGES
----------------------
   0 C :   -0.157011
   1 C :   -0.096592
   2 C :   -0.080450
   3 C :   -0.144475
   4 C :   -0.134041
   5 C :   -0.139368
   6 C :   -0.034557
   7 C :   -0.143236
   8 N :    0.201817
   9 C :   -0.121055
  10 C :   -0.140115
  11 C :   -0.106710
  12 C :   -0.081930
  13 H :    0.151017
  14 H :    0.193825
  15 H :    0.147709
  16 H :    0.152049
  17 H :    0.143104
  18 H :    0.144972
  19 H :    0.144404
  20 C :   -0.202768
  21 N :    0.061350
  22 O :    0.302595
  23 C :   -0.220884
  24 C :   -0.103114
  25 C :   -0.227035
  26 N :    0.037167
  27 O :    0.309206
  28 C :   -0.198734
  29 C :   -0.117495
  30 H :    0.152723
  31 H :    0.155223
  32 C :   -0.185406
  33 N :    0.180536
  34 C :   -0.124469
  35 C :   -0.168225
  36 N :    0.176043
  37 C :   -0.191352
  38 C :   -0.037927
  39 C :   -0.219414
  40 C :   -0.265498
  41 C :   -0.049576
  42 N :   -0.071246
  43 S :    0.550955
  44 N :   -0.042593
  45 H :    0.145664
  46 H :    0.146605
  47 H :    0.145440
  48 H :    0.162873

  Mayer bond orders larger than 0.1
B(  0-C ,  1-C ) :   1.5321 B(  0-C ,  5-C ) :   1.3535 B(  0-C , 19-H ) :   0.9872
B(  1-C ,  2-C ) :   1.2757 B(  1-C , 16-H ) :   0.9366 B(  2-C ,  3-C ) :   1.3687
B(  2-C ,  6-C ) :   1.0759 B(  3-C ,  4-C ) :   1.3008 B(  3-C ,  8-N ) :   1.1186
B(  4-C ,  5-C ) :   1.4845 B(  4-C , 17-H ) :   0.9774 B(  5-C , 18-H ) :   0.9795
B(  6-C ,  7-C ) :   1.3366 B(  6-C , 12-C ) :   1.2588 B(  7-C ,  8-N ) :   1.1532
B(  7-C ,  9-C ) :   1.2861 B(  8-N , 14-H ) :   0.9117 B(  9-C , 10-C ) :   1.4647
B(  9-C , 47-H ) :   0.9725 B( 10-C , 11-C ) :   1.4101 B( 10-C , 15-H ) :   0.9822
B( 11-C , 12-C ) :   1.4444 B( 11-C , 13-H ) :   0.9691 B( 12-C , 28-C ) :   0.9396
B( 20-C , 21-N ) :   1.6169 B( 20-C , 24-C ) :   1.2514 B( 20-C , 38-C ) :   0.8949
B( 21-N , 22-O ) :   0.9967 B( 21-N , 23-C ) :   0.1260 B( 22-O , 23-C ) :   1.1862
B( 23-C , 24-C ) :   1.6255 B( 23-C , 25-C ) :   0.9811 B( 24-C , 31-H ) :   0.9258
B( 25-C , 26-N ) :   1.6515 B( 25-C , 29-C ) :   1.2755 B( 26-N , 27-O ) :   0.9933
B( 26-N , 28-C ) :   0.1244 B( 27-O , 28-C ) :   1.1708 B( 28-C , 29-C ) :   1.5953
B( 29-C , 30-H ) :   0.9200 B( 32-C , 33-N ) :   1.7609 B( 32-C , 37-C ) :   1.1185
B( 32-C , 46-H ) :   0.9588 B( 33-N , 34-C ) :   1.1426 B( 34-C , 35-C ) :   1.1634
B( 34-C , 38-C ) :   1.4224 B( 35-C , 36-N ) :   1.1592 B( 35-C , 41-C ) :   1.5170
B( 36-N , 37-C ) :   1.7399 B( 37-C , 45-H ) :   0.9600 B( 38-C , 39-C ) :   1.1057
B( 39-C , 40-C ) :   1.0549 B( 39-C , 44-N ) :   1.6811 B( 40-C , 41-C ) :   1.1797
B( 40-C , 42-N ) :   1.6597 B( 41-C , 48-H ) :   0.9695 B( 42-N , 43-S ) :   1.1538
B( 42-N , 44-N ) :   0.1396 B( 43-S , 44-N ) :   1.1521

Dispersion correction           -0.022722012
FINAL SINGLE POINT ENERGY     -1930.449218897555

DIPOLE MOMENT
-------------
                                X             Y             Z
Electronic contribution:    -30.12401       8.07666       7.80985
Nuclear contribution   :     31.71334      -8.89803      -8.34893
                        -----------------------------------------
Total Dipole Moment    :      1.58933      -0.82137      -0.53908
                        -----------------------------------------
Magnitude (a.u.)       :      1.86848
Magnitude (Debye)      :      4.74930

                             ****ORCA TERMINATED NORMALLY****
TOTAL RUN TIME: 0 days 0 hours 14 minutes 58 seconds 29 msec
