                         Program Version 4.0.0 -  RELEASE  -
|  1> #
|  2> !wB97X-D3 def2-TZVP def2/J RIJCOSX Grid5 FinalGrid6 TightSCF
|  3> %pal
|  4>  nprocs 24
|  5> end
|  6> %tddft
|  7>   Mode sTDDFT
|  8>   nroots 2
|  9>   Ethresh 10.0
| 10>   maxcore 5000
| 11>   triplets true
| 12> end
| 13> * xyz 0 1
| 14> C -4.74025973 -2.56662602 1.36541506
| 15> C -4.02149239 -1.52193690 0.79016818
| 16> C -4.71819871 -0.40849145 0.28299709
| 17> C -6.13737713 -0.39242597 0.38985826
| 18> C -6.86461690 -1.44703978 0.96272076
| 19> C -6.14355238 -2.53501150 1.44790419
| 20> C -4.33561146 0.84746207 -0.34357640
| 21> C -5.55032443 1.56282528 -0.56342564
| 22> N -6.61668903 0.79559306 -0.13347942
| 23> C -5.59268239 2.85270913 -1.11262527
| 24> C -4.37659302 3.45052472 -1.43674405
| 25> C -3.16721530 2.77533089 -1.23118007
| 26> C -3.10884217 1.47000445 -0.70543405
| 27> H -2.23899665 3.26818323 -1.51133350
| 28> H -7.58933178 1.07553242 -0.16439576
| 29> H -4.36221568 4.45173066 -1.85764205
| 30> H -2.93814005 -1.57286031 0.73318300
| 31> H -7.94874607 -1.41166879 1.02888995
| 32> H -6.67206910 -3.37076906 1.89882484
| 33> H -4.20717288 -3.42857503 1.75726193
| 34> S 2.82111317 -1.46524299 -0.25649505
| 35> C 4.31974501 -0.52405930 -0.07791353
| 36> N 4.11320440 0.79033108 -0.04199492
| 37> N 2.80054434 1.13676424 -0.14922894
| 38> C 1.98164832 0.09827878 -0.26906297
| 39> C 0.54818657 0.20997907 -0.39680086
| 40> N -0.26416495 -0.83232729 -0.52129756
| 41> N -1.58107930 -0.48147685 -0.62658407
| 42> C -1.79836443 0.82446349 -0.57898435
| 43> S -0.29478332 1.76467454 -0.40581414
| 44> C 5.61358145 -1.14929117 0.01597054
| 45> S 5.79397455 -2.88692972 -0.04063633
| 46> C 7.51883040 -2.82652822 0.12240526
| 47> C 7.95672733 -1.50584520 0.21891019
| 48> C 6.87845714 -0.54448952 0.15916620
| 49> N 9.27245080 -1.10479219 0.35829963
| 50> C 9.45912272 0.20237248 0.43085426
| 51> C 8.38467476 1.15698480 0.37115749
| 52> N 7.11424372 0.80887464 0.23825070
| 53> H 10.49016060 0.56132038 0.54197562
| 54> H 8.61249199 2.22785620 0.43755002
| 55> H -6.53640456 3.36779837 -1.26819346
| 56> H 8.12566655 -3.72290669 0.14097921
| 57> *
| 58> $new_job
| 59> #
| 60> !wB97X-D3 def2-TZVP def2/J RIJCOSX Grid5 FinalGrid6 TightSCF
| 61> %pal
| 62>  nprocs 24
| 63> end
| 64> %elprop
| 65>    dipole     true
| 66>    quadrupole true
| 67> end
| 68> %tddft
| 69>   Mode sTDDFT
| 70>   nroots 2
| 71>   Ethresh 10.0
| 72>   maxcore 5000
| 73> end
| 74> * xyz 0 1
| 75> C -4.74025973 -2.56662602 1.36541506
| 76> C -4.02149239 -1.52193690 0.79016818
| 77> C -4.71819871 -0.40849145 0.28299709
| 78> C -6.13737713 -0.39242597 0.38985826
| 79> C -6.86461690 -1.44703978 0.96272076
| 80> C -6.14355238 -2.53501150 1.44790419
| 81> C -4.33561146 0.84746207 -0.34357640
| 82> C -5.55032443 1.56282528 -0.56342564
| 83> N -6.61668903 0.79559306 -0.13347942
| 84> C -5.59268239 2.85270913 -1.11262527
| 85> C -4.37659302 3.45052472 -1.43674405
| 86> C -3.16721530 2.77533089 -1.23118007
| 87> C -3.10884217 1.47000445 -0.70543405
| 88> H -2.23899665 3.26818323 -1.51133350
| 89> H -7.58933178 1.07553242 -0.16439576
| 90> H -4.36221568 4.45173066 -1.85764205
| 91> H -2.93814005 -1.57286031 0.73318300
| 92> H -7.94874607 -1.41166879 1.02888995
| 93> H -6.67206910 -3.37076906 1.89882484
| 94> H -4.20717288 -3.42857503 1.75726193
| 95> S 2.82111317 -1.46524299 -0.25649505
| 96> C 4.31974501 -0.52405930 -0.07791353
| 97> N 4.11320440 0.79033108 -0.04199492
| 98> N 2.80054434 1.13676424 -0.14922894
| 99> C 1.98164832 0.09827878 -0.26906297
|100> C 0.54818657 0.20997907 -0.39680086
|101> N -0.26416495 -0.83232729 -0.52129756
|102> N -1.58107930 -0.48147685 -0.62658407
|103> C -1.79836443 0.82446349 -0.57898435
|104> S -0.29478332 1.76467454 -0.40581414
|105> C 5.61358145 -1.14929117 0.01597054
|106> S 5.79397455 -2.88692972 -0.04063633
|107> C 7.51883040 -2.82652822 0.12240526
|108> C 7.95672733 -1.50584520 0.21891019
|109> C 6.87845714 -0.54448952 0.15916620
|110> N 9.27245080 -1.10479219 0.35829963
|111> C 9.45912272 0.20237248 0.43085426
|112> C 8.38467476 1.15698480 0.37115749
|113> N 7.11424372 0.80887464 0.23825070
|114> H 10.49016060 0.56132038 0.54197562
|115> H 8.61249199 2.22785620 0.43755002
|116> H -6.53640456 3.36779837 -1.26819346
|117> H 8.12566655 -3.72290669 0.14097921
|118> *
|119>
|120>                          ****END OF INPUT****
 Total Charge           Charge          ....    0
 Multiplicity           Mult            ....    1
 Number of Electrons    NEL             ....  240
Dispersion correction           -0.019191120
FINAL SINGLE POINT ENERGY     -2422.842442817515

CARTESIAN COORDINATES (ANGSTROEM)
---------------------------------
  C     -4.740260   -2.566626    1.365415
  C     -4.021492   -1.521937    0.790168
  C     -4.718199   -0.408491    0.282997
  C     -6.137377   -0.392426    0.389858
  C     -6.864617   -1.447040    0.962721
  C     -6.143552   -2.535011    1.447904
  C     -4.335611    0.847462   -0.343576
  C     -5.550324    1.562825   -0.563426
  N     -6.616689    0.795593   -0.133479
  C     -5.592682    2.852709   -1.112625
  C     -4.376593    3.450525   -1.436744
  C     -3.167215    2.775331   -1.231180
  C     -3.108842    1.470004   -0.705434
  H     -2.238997    3.268183   -1.511334
  H     -7.589332    1.075532   -0.164396
  H     -4.362216    4.451731   -1.857642
  H     -2.938140   -1.572860    0.733183
  H     -7.948746   -1.411669    1.028890
  H     -6.672069   -3.370769    1.898825
  H     -4.207173   -3.428575    1.757262
  S      2.821113   -1.465243   -0.256495
  C      4.319745   -0.524059   -0.077914
  N      4.113204    0.790331   -0.041995
  N      2.800544    1.136764   -0.149229
  C      1.981648    0.098279   -0.269063
  C      0.548187    0.209979   -0.396801
  N     -0.264165   -0.832327   -0.521298
  N     -1.581079   -0.481477   -0.626584
  C     -1.798364    0.824463   -0.578984
  S     -0.294783    1.764675   -0.405814
  C      5.613581   -1.149291    0.015971
  S      5.793975   -2.886930   -0.040636
  C      7.518830   -2.826528    0.122405
  C      7.956727   -1.505845    0.218910
  C      6.878457   -0.544490    0.159166
  N      9.272451   -1.104792    0.358300
  C      9.459123    0.202372    0.430854
  C      8.384675    1.156985    0.371157
  N      7.114244    0.808875    0.238251
  H     10.490161    0.561320    0.541976
  H      8.612492    2.227856    0.437550
  H     -6.536405    3.367798   -1.268193
  H      8.125667   -3.722907    0.140979

 Multiplicity           Mult            ....    1
 Number of Electrons    NEL             ....  240
 Basis Dimension        Dim             .... 1076

ORBITAL ENERGIES
----------------

  NO   OCC          E(Eh)            E(eV)
   0   2.0000     -89.023422     -2422.4505
   1   2.0000     -89.010216     -2422.0911
   2   2.0000     -89.007528     -2422.0180
   3   2.0000     -14.474170      -393.8622
   4   2.0000     -14.472988      -393.8300
   5   2.0000     -14.471192      -393.7812
   6   2.0000     -14.464503      -393.5991
   7   2.0000     -14.464240      -393.5920
   8   2.0000     -14.460409      -393.4877
   9   2.0000     -14.455339      -393.3498
  10   2.0000     -10.382018      -282.5091
  11   2.0000     -10.380074      -282.4562
  12   2.0000     -10.379079      -282.4291
  13   2.0000     -10.374753      -282.3114
  14   2.0000     -10.352460      -281.7047
  15   2.0000     -10.348335      -281.5925
  16   2.0000     -10.347731      -281.5761
  17   2.0000     -10.346992      -281.5560
  18   2.0000     -10.345358      -281.5115
  19   2.0000     -10.343411      -281.4585
  20   2.0000     -10.335275      -281.2371
  21   2.0000     -10.326501      -280.9984
  22   2.0000     -10.321186      -280.8538
  23   2.0000     -10.305622      -280.4302
  24   2.0000     -10.299881      -280.2740
  25   2.0000     -10.296472      -280.1812
  26   2.0000     -10.295340      -280.1504
  27   2.0000     -10.289436      -279.9898
  28   2.0000     -10.284900      -279.8664
  29   2.0000     -10.283941      -279.8403
  30   2.0000     -10.277913      -279.6762
  31   2.0000     -10.271280      -279.4957
  32   2.0000      -8.118752      -220.9225
  33   2.0000      -8.106527      -220.5898
  34   2.0000      -8.103747      -220.5142
  35   2.0000      -6.071671      -165.2186
  36   2.0000      -6.067560      -165.1067
  37   2.0000      -6.066750      -165.0847
  38   2.0000      -6.059634      -164.8910
  39   2.0000      -6.056833      -164.8148
  40   2.0000      -6.055793      -164.7865
  41   2.0000      -6.053478      -164.7235
  42   2.0000      -6.052905      -164.7079
  43   2.0000      -6.050832      -164.6515
  44   2.0000      -1.157121       -31.4869
  45   2.0000      -1.149108       -31.2688
  46   2.0000      -1.110929       -30.2299
  47   2.0000      -1.108425       -30.1618
  48   2.0000      -1.039561       -28.2879
  49   2.0000      -1.020666       -27.7737
  50   2.0000      -0.994000       -27.0481
  51   2.0000      -0.978043       -26.6139
  52   2.0000      -0.964441       -26.2438
  53   2.0000      -0.950374       -25.8610
  54   2.0000      -0.935966       -25.4689
  55   2.0000      -0.915939       -24.9240
  56   2.0000      -0.902288       -24.5525
  57   2.0000      -0.888924       -24.1889
  58   2.0000      -0.875750       -23.8304
  59   2.0000      -0.865523       -23.5521
  60   2.0000      -0.847388       -23.0586
  61   2.0000      -0.841722       -22.9044
  62   2.0000      -0.795132       -21.6367
  63   2.0000      -0.785943       -21.3866
  64   2.0000      -0.774163       -21.0660
  65   2.0000      -0.760101       -20.6834
  66   2.0000      -0.736695       -20.0465
  67   2.0000      -0.725041       -19.7294
  68   2.0000      -0.722312       -19.6551
  69   2.0000      -0.712866       -19.3981
  70   2.0000      -0.691677       -18.8215
  71   2.0000      -0.671040       -18.2599
  72   2.0000      -0.664367       -18.0784
  73   2.0000      -0.650120       -17.6907
  74   2.0000      -0.641027       -17.4432
  75   2.0000      -0.625441       -17.0191
  76   2.0000      -0.617494       -16.8029
  77   2.0000      -0.610795       -16.6206
  78   2.0000      -0.609161       -16.5761
  79   2.0000      -0.580119       -15.7858
  80   2.0000      -0.576504       -15.6875
  81   2.0000      -0.571946       -15.5634
  82   2.0000      -0.563134       -15.3236
  83   2.0000      -0.561811       -15.2877
  84   2.0000      -0.552648       -15.0383
  85   2.0000      -0.550189       -14.9714
  86   2.0000      -0.548149       -14.9159
  87   2.0000      -0.540344       -14.7035
  88   2.0000      -0.538823       -14.6621
  89   2.0000      -0.533857       -14.5270
  90   2.0000      -0.529924       -14.4200
  91   2.0000      -0.526023       -14.3138
  92   2.0000      -0.519631       -14.1399
  93   2.0000      -0.515317       -14.0225
  94   2.0000      -0.507207       -13.8018
  95   2.0000      -0.486511       -13.2386
  96   2.0000      -0.477855       -13.0031
  97   2.0000      -0.472268       -12.8511
  98   2.0000      -0.471328       -12.8255
  99   2.0000      -0.468788       -12.7564
 100   2.0000      -0.455325       -12.3900
 101   2.0000      -0.446649       -12.1539
 102   2.0000      -0.444722       -12.1015
 103   2.0000      -0.435721       -11.8566
 104   2.0000      -0.430216       -11.7068
 105   2.0000      -0.421668       -11.4742
 106   2.0000      -0.419774       -11.4226
 107   2.0000      -0.401831       -10.9344
 108   2.0000      -0.401171       -10.9164
 109   2.0000      -0.394283       -10.7290
 110   2.0000      -0.384324       -10.4580
 111   2.0000      -0.376086       -10.2338
 112   2.0000      -0.371565       -10.1108
 113   2.0000      -0.364875        -9.9288
 114   2.0000      -0.361168        -9.8279
 115   2.0000      -0.351036        -9.5522
 116   2.0000      -0.339254        -9.2316
 117   2.0000      -0.307051        -8.3553
 118   2.0000      -0.299446        -8.1483
 119   2.0000      -0.289948        -7.8899
 120   0.0000      -0.055849        -1.5197
 121   0.0000      -0.022918        -0.6236
 122   0.0000       0.009985         0.2717
 123   0.0000       0.036058         0.9812
 124   0.0000       0.041309         1.1241

MULLIKEN ATOMIC CHARGES
-----------------------
   0 C :   -0.175233
   1 C :   -0.134002
   2 C :   -0.032777
   3 C :    0.173520
   4 C :   -0.241698
   5 C :   -0.077319
   6 C :   -0.017948
   7 C :    0.188012
   8 N :   -0.302102
   9 C :   -0.224183
  10 C :   -0.096364
  11 C :   -0.279211
  12 C :    0.107536
  13 H :    0.128673
  14 H :    0.237040
  15 H :    0.127225
  16 H :    0.156482
  17 H :    0.112631
  18 H :    0.122320
  19 H :    0.118623
  20 S :    0.053408
  21 C :    0.195699
  22 N :   -0.098413
  23 N :   -0.174080
  24 C :    0.103360
  25 C :    0.125952
  26 N :   -0.173992
  27 N :   -0.190694
  28 C :    0.171957
  29 S :    0.065768
  30 C :   -0.104769
  31 S :    0.114259
  32 C :   -0.208414
  33 C :    0.068254
  34 C :    0.059454
  35 N :   -0.243420
  36 C :    0.003933
  37 C :   -0.031029
  38 N :   -0.222263
  39 H :    0.144211
  40 H :    0.145072
  41 H :    0.121277
  42 H :    0.183247
Sum of atomic charges:   -0.0000000

LOEWDIN ATOMIC CHARGES
----------------------
   0 C :   -0.157894
   1 C :   -0.091710
   2 C :   -0.077904
   3 C :   -0.144392
   4 C :   -0.136361
   5 C :   -0.138993
   6 C :   -0.028023
   7 C :   -0.143194
   8 N :    0.201611
   9 C :   -0.117598
  10 C :   -0.141116
  11 C :   -0.122726
  12 C :   -0.116333
  13 H :    0.145547
  14 H :    0.193635
  15 H :    0.148015
  16 H :    0.153975
  17 H :    0.142536
  18 H :    0.144548
  19 H :    0.144013
  20 S :    0.718457
  21 C :   -0.439060
  22 N :    0.058784
  23 N :    0.051097
  24 C :   -0.456045
  25 C :   -0.460970
  26 N :    0.043067
  27 N :    0.047578
  28 C :   -0.373660
  29 S :    0.739975
  30 C :   -0.341627
  31 S :    0.778585
  32 C :   -0.330392
  33 C :   -0.241573
  34 C :   -0.188735
  35 N :    0.163972
  36 C :   -0.196743
  37 C :   -0.189903
  38 N :    0.186132
  39 H :    0.143662
  40 H :    0.145077
  41 H :    0.145856
  42 H :    0.138830

  Mayer bond orders larger than 0.1
B(  0-C ,  1-C ) :   1.5366 B(  0-C ,  5-C ) :   1.3518 B(  0-C , 19-H ) :   0.9872
B(  1-C ,  2-C ) :   1.2659 B(  1-C , 16-H ) :   0.9376 B(  2-C ,  3-C ) :   1.3531
B(  2-C ,  6-C ) :   1.0844 B(  3-C ,  4-C ) :   1.3005 B(  3-C ,  8-N ) :   1.1159
B(  4-C ,  5-C ) :   1.4805 B(  4-C , 17-H ) :   0.9792 B(  5-C , 18-H ) :   0.9819
B(  6-C ,  7-C ) :   1.3204 B(  6-C , 12-C ) :   1.2439 B(  7-C ,  8-N ) :   1.1561
B(  7-C ,  9-C ) :   1.2835 B(  8-N , 14-H ) :   0.9121 B(  9-C , 10-C ) :   1.4658
B(  9-C , 41-H ) :   0.9764 B( 10-C , 11-C ) :   1.4195 B( 10-C , 15-H ) :   0.9809
B( 11-C , 12-C ) :   1.4129 B( 11-C , 13-H ) :   0.9618 B( 12-C , 28-C ) :   0.9354
B( 20-S , 21-C ) :   1.2854 B( 20-S , 24-C ) :   1.3034 B( 21-C , 22-N ) :   1.7075
B( 21-C , 30-C ) :   0.9316 B( 22-N , 23-N ) :   1.1303 B( 23-N , 24-C ) :   1.7043
B( 24-C , 25-C ) :   0.9366 B( 25-C , 26-N ) :   1.7074 B( 25-C , 29-S ) :   1.3035
B( 26-N , 27-N ) :   1.1239 B( 27-N , 28-C ) :   1.6448 B( 28-C , 29-S ) :   1.2910
B( 30-C , 31-S ) :   1.3279 B( 30-C , 34-C ) :   1.3611 B( 31-S , 32-C ) :   1.3466
B( 32-C , 33-C ) :   1.5365 B( 32-C , 42-H ) :   0.9187 B( 33-C , 34-C ) :   1.2199
B( 33-C , 35-N ) :   1.2517 B( 34-C , 38-N ) :   1.2762 B( 35-N , 36-C ) :   1.6802
B( 36-C , 37-C ) :   1.1600 B( 36-C , 39-H ) :   0.9608 B( 37-C , 38-N ) :   1.7035
B( 37-C , 40-H ) :   0.9643

Dispersion correction           -0.019191120
FINAL SINGLE POINT ENERGY     -2422.842442723024

DIPOLE MOMENT
-------------
                                X             Y             Z
Electronic contribution:     21.96158      -2.64018      -2.35871
Nuclear contribution   :    -22.45122       2.87139       2.40991
                        -----------------------------------------
Total Dipole Moment    :     -0.48964       0.23121       0.05120
                        -----------------------------------------
Magnitude (a.u.)       :      0.54390
Magnitude (Debye)      :      1.38248

                             ****ORCA TERMINATED NORMALLY****
TOTAL RUN TIME: 0 days 0 hours 11 minutes 36 seconds 846 msec
