                         Program Version 4.0.0 -  RELEASE  -
|  1> #
|  2> !wB97X-D3 def2-TZVP def2/J RIJCOSX Grid5 FinalGrid6 TightSCF
|  3> %pal
|  4>  nprocs 24
|  5> end
|  6> %tddft
|  7>   Mode sTDDFT
|  8>   nroots 2
|  9>   Ethresh 10.0
| 10>   maxcore 5000
| 11>   triplets true
| 12> end
| 13> * xyz 0 1
| 14> C 8.11668002 2.60328531 -0.59079805
| 15> C 7.45958042 1.37544724 -0.57151511
| 16> C 8.21188253 0.19371509 -0.70971058
| 17> C 9.62355689 0.30318512 -0.85414184
| 18> C 10.28739352 1.53916589 -0.88113770
| 19> C 9.51120095 2.68790633 -0.74805736
| 20> C 7.90384457 -1.22846741 -0.71125501
| 21> C 9.15523322 -1.90100737 -0.83874715
| 22> N 10.16872781 -0.96593687 -0.94024064
| 23> C 9.28009939 -3.29811459 -0.83176299
| 24> C 8.11296001 -4.04302394 -0.67556094
| 25> C 6.86958931 -3.41187948 -0.54609489
| 26> C 6.72400955 -2.01149363 -0.57721257
| 27> H 5.97929481 -4.02762794 -0.44065131
| 28> H 11.15494767 -1.17867417 -1.02588626
| 29> H 8.16367008 -5.12800973 -0.65655546
| 30> H 6.38047419 1.33627247 -0.45487863
| 31> H 11.36663583 1.59558878 -0.99609932
| 32> H 9.99000203 3.66354578 -0.76365275
| 33> H 7.54040629 3.51847721 -0.48516524
| 34> S 0.58240636 0.50163681 -0.26876366
| 35> C -0.74071062 -0.37021570 0.53846565
| 36> N -0.35806753 -1.54606291 1.02736657
| 37> N 0.96403738 -1.82604583 0.83160456
| 38> C 1.61063637 -0.86961109 0.17546847
| 39> C 3.01661077 -0.93852553 -0.15049282
| 40> N 3.67038841 0.00242401 -0.81891013
| 41> N 4.99523036 -0.28863989 -1.00846164
| 42> C 5.37406941 -1.44453401 -0.48695702
| 43> S 4.03525188 -2.31287264 0.30724125
| 44> C -4.73076862 1.15895850 0.93445269
| 45> C -3.80525578 1.85051146 0.13229973
| 46> C -2.48733614 1.34350940 -0.00473373
| 47> C -2.09728836 0.15465686 0.67123839
| 48> C -3.05593340 -0.54447775 1.45591416
| 49> C -4.37702599 -0.03637018 1.58044519
| 50> N -2.67354253 -1.65877063 2.22297878
| 51> C -3.22296532 -2.82442424 2.14069902
| 52> C -2.80380024 -3.90641667 3.10245622
| 53> N -5.27464244 -0.67830982 2.47255350
| 54> C -6.48913200 -0.98199144 2.14877770
| 55> C -7.09400329 -0.80837119 0.76566779
| 56> N -4.11760396 3.12049946 -0.41615746
| 57> C -5.20104619 3.35532022 -1.08290331
| 58> C -6.22507715 2.30813630 -1.48728020
| 59> N -1.51397737 2.07879445 -0.71079964
| 60> C -1.64001434 2.47074997 -1.93911278
| 61> C -2.76159946 2.05857442 -2.86981089
| 62> C -4.23981001 -3.22386128 1.08788143
| 63> C -7.39122584 -1.59946042 3.18823056
| 64> C -5.47787217 4.76111970 -1.55533785
| 65> C -0.56420679 3.33854409 -2.53922218
| 66> H -5.21621209 -3.39361770 1.54263675
| 67> H -3.94046393 -4.15363041 0.60559429
| 68> H -4.34738681 -2.45353491 0.32839197
| 69> H -2.35023156 -4.74097640 2.56717017
| 70> H -2.08772082 -3.53007539 3.82654475
| 71> H -3.66809461 -4.30176124 3.63681877
| 72> H -0.10157199 2.84333924 -3.39329685
| 73> H -0.98618076 4.27515804 -2.90434738
| 74> H 0.20755272 3.56574159 -1.80987739
| 75> H -3.41041424 2.90576207 -3.09312847
| 76> H -3.36959869 1.26938110 -2.43506135
| 77> H -2.35169192 1.70704718 -3.81619265
| 78> H -6.58631873 2.50235715 -2.49564110
| 79> H -5.80456214 1.30590381 -1.45030795
| 80> H -7.08978360 2.33477131 -0.82368560
| 81> H -4.71025756 5.44816009 -1.21226766
| 82> H -6.44437753 5.10715149 -1.18876045
| 83> H -5.51936209 4.80079882 -2.64456272
| 84> H -6.89154085 -1.66805356 4.14975785
| 85> H -8.30029781 -1.01006796 3.30857878
| 86> H -7.70005764 -2.60034442 2.88421208
| 87> H -6.32339629 -0.71537887 0.00403753
| 88> H -7.73131412 -1.65636124 0.52158305
| 89> H -7.71629458 0.08607586 0.72533242
| 90> H 10.24964752 -3.77772183 -0.93269906
| 91> H -5.71618438 1.58344766 1.10089566
| 92> *
| 93> $new_job
| 94> #
| 95> !wB97X-D3 def2-TZVP def2/J RIJCOSX Grid5 FinalGrid6 TightSCF
| 96> %pal
| 97>  nprocs 24
| 98> end
| 99> %elprop
|100>    dipole     true
|101>    quadrupole true
|102> end
|103> %tddft
|104>   Mode sTDDFT
|105>   nroots 2
|106>   Ethresh 10.0
|107>   maxcore 5000
|108> end
|109> * xyz 0 1
|110> C 8.11668002 2.60328531 -0.59079805
|111> C 7.45958042 1.37544724 -0.57151511
|112> C 8.21188253 0.19371509 -0.70971058
|113> C 9.62355689 0.30318512 -0.85414184
|114> C 10.28739352 1.53916589 -0.88113770
|115> C 9.51120095 2.68790633 -0.74805736
|116> C 7.90384457 -1.22846741 -0.71125501
|117> C 9.15523322 -1.90100737 -0.83874715
|118> N 10.16872781 -0.96593687 -0.94024064
|119> C 9.28009939 -3.29811459 -0.83176299
|120> C 8.11296001 -4.04302394 -0.67556094
|121> C 6.86958931 -3.41187948 -0.54609489
|122> C 6.72400955 -2.01149363 -0.57721257
|123> H 5.97929481 -4.02762794 -0.44065131
|124> H 11.15494767 -1.17867417 -1.02588626
|125> H 8.16367008 -5.12800973 -0.65655546
|126> H 6.38047419 1.33627247 -0.45487863
|127> H 11.36663583 1.59558878 -0.99609932
|128> H 9.99000203 3.66354578 -0.76365275
|129> H 7.54040629 3.51847721 -0.48516524
|130> S 0.58240636 0.50163681 -0.26876366
|131> C -0.74071062 -0.37021570 0.53846565
|132> N -0.35806753 -1.54606291 1.02736657
|133> N 0.96403738 -1.82604583 0.83160456
|134> C 1.61063637 -0.86961109 0.17546847
|135> C 3.01661077 -0.93852553 -0.15049282
|136> N 3.67038841 0.00242401 -0.81891013
|137> N 4.99523036 -0.28863989 -1.00846164
|138> C 5.37406941 -1.44453401 -0.48695702
|139> S 4.03525188 -2.31287264 0.30724125
|140> C -4.73076862 1.15895850 0.93445269
|141> C -3.80525578 1.85051146 0.13229973
|142> C -2.48733614 1.34350940 -0.00473373
|143> C -2.09728836 0.15465686 0.67123839
|144> C -3.05593340 -0.54447775 1.45591416
|145> C -4.37702599 -0.03637018 1.58044519
|146> N -2.67354253 -1.65877063 2.22297878
|147> C -3.22296532 -2.82442424 2.14069902
|148> C -2.80380024 -3.90641667 3.10245622
|149> N -5.27464244 -0.67830982 2.47255350
|150> C -6.48913200 -0.98199144 2.14877770
|151> C -7.09400329 -0.80837119 0.76566779
|152> N -4.11760396 3.12049946 -0.41615746
|153> C -5.20104619 3.35532022 -1.08290331
|154> C -6.22507715 2.30813630 -1.48728020
|155> N -1.51397737 2.07879445 -0.71079964
|156> C -1.64001434 2.47074997 -1.93911278
|157> C -2.76159946 2.05857442 -2.86981089
|158> C -4.23981001 -3.22386128 1.08788143
|159> C -7.39122584 -1.59946042 3.18823056
|160> C -5.47787217 4.76111970 -1.55533785
|161> C -0.56420679 3.33854409 -2.53922218
|162> H -5.21621209 -3.39361770 1.54263675
|163> H -3.94046393 -4.15363041 0.60559429
|164> H -4.34738681 -2.45353491 0.32839197
|165> H -2.35023156 -4.74097640 2.56717017
|166> H -2.08772082 -3.53007539 3.82654475
|167> H -3.66809461 -4.30176124 3.63681877
|168> H -0.10157199 2.84333924 -3.39329685
|169> H -0.98618076 4.27515804 -2.90434738
|170> H 0.20755272 3.56574159 -1.80987739
|171> H -3.41041424 2.90576207 -3.09312847
|172> H -3.36959869 1.26938110 -2.43506135
|173> H -2.35169192 1.70704718 -3.81619265
|174> H -6.58631873 2.50235715 -2.49564110
|175> H -5.80456214 1.30590381 -1.45030795
|176> H -7.08978360 2.33477131 -0.82368560
|177> H -4.71025756 5.44816009 -1.21226766
|178> H -6.44437753 5.10715149 -1.18876045
|179> H -5.51936209 4.80079882 -2.64456272
|180> H -6.89154085 -1.66805356 4.14975785
|181> H -8.30029781 -1.01006796 3.30857878
|182> H -7.70005764 -2.60034442 2.88421208
|183> H -6.32339629 -0.71537887 0.00403753
|184> H -7.73131412 -1.65636124 0.52158305
|185> H -7.71629458 0.08607586 0.72533242
|186> H 10.24964752 -3.77772183 -0.93269906
|187> H -5.71618438 1.58344766 1.10089566
|188> *
|189>
|190>                          ****END OF INPUT****
 Total Charge           Charge          ....    0
 Multiplicity           Mult            ....    1
 Number of Electrons    NEL             ....  332
Dispersion correction           -0.043785360
FINAL SINGLE POINT ENERGY     -2604.733175222682

CARTESIAN COORDINATES (ANGSTROEM)
---------------------------------
  C      8.116680    2.603285   -0.590798
  C      7.459580    1.375447   -0.571515
  C      8.211883    0.193715   -0.709711
  C      9.623557    0.303185   -0.854142
  C     10.287394    1.539166   -0.881138
  C      9.511201    2.687906   -0.748057
  C      7.903845   -1.228467   -0.711255
  C      9.155233   -1.901007   -0.838747
  N     10.168728   -0.965937   -0.940241
  C      9.280099   -3.298115   -0.831763
  C      8.112960   -4.043024   -0.675561
  C      6.869589   -3.411879   -0.546095
  C      6.724010   -2.011494   -0.577213
  H      5.979295   -4.027628   -0.440651
  H     11.154948   -1.178674   -1.025886
  H      8.163670   -5.128010   -0.656555
  H      6.380474    1.336272   -0.454879
  H     11.366636    1.595589   -0.996099
  H      9.990002    3.663546   -0.763653
  H      7.540406    3.518477   -0.485165
  S      0.582406    0.501637   -0.268764
  C     -0.740711   -0.370216    0.538466
  N     -0.358068   -1.546063    1.027367
  N      0.964037   -1.826046    0.831605
  C      1.610636   -0.869611    0.175468
  C      3.016611   -0.938526   -0.150493
  N      3.670388    0.002424   -0.818910
  N      4.995230   -0.288640   -1.008462
  C      5.374069   -1.444534   -0.486957
  S      4.035252   -2.312873    0.307241
  C     -4.730769    1.158959    0.934453
  C     -3.805256    1.850511    0.132300
  C     -2.487336    1.343509   -0.004734
  C     -2.097288    0.154657    0.671238
  C     -3.055933   -0.544478    1.455914
  C     -4.377026   -0.036370    1.580445
  N     -2.673543   -1.658771    2.222979
  C     -3.222965   -2.824424    2.140699
  C     -2.803800   -3.906417    3.102456
  N     -5.274642   -0.678310    2.472554
  C     -6.489132   -0.981991    2.148778
  C     -7.094003   -0.808371    0.765668
  N     -4.117604    3.120499   -0.416157
  C     -5.201046    3.355320   -1.082903
  C     -6.225077    2.308136   -1.487280
  N     -1.513977    2.078794   -0.710800
  C     -1.640014    2.470750   -1.939113
  C     -2.761599    2.058574   -2.869811
  C     -4.239810   -3.223861    1.087881
  C     -7.391226   -1.599460    3.188231
  C     -5.477872    4.761120   -1.555338
  C     -0.564207    3.338544   -2.539222
  H     -5.216212   -3.393618    1.542637
  H     -3.940464   -4.153630    0.605594
  H     -4.347387   -2.453535    0.328392
  H     -2.350232   -4.740976    2.567170
  H     -2.087721   -3.530075    3.826545
  H     -3.668095   -4.301761    3.636819
  H     -0.101572    2.843339   -3.393297
  H     -0.986181    4.275158   -2.904347
  H      0.207553    3.565742   -1.809877
  H     -3.410414    2.905762   -3.093128
  H     -3.369599    1.269381   -2.435061
  H     -2.351692    1.707047   -3.816193
  H     -6.586319    2.502357   -2.495641
  H     -5.804562    1.305904   -1.450308
  H     -7.089784    2.334771   -0.823686
  H     -4.710258    5.448160   -1.212268
  H     -6.444378    5.107151   -1.188760
  H     -5.519362    4.800799   -2.644563
  H     -6.891541   -1.668054    4.149758
  H     -8.300298   -1.010068    3.308579
  H     -7.700058   -2.600344    2.884212
  H     -6.323396   -0.715379    0.004038
  H     -7.731314   -1.656361    0.521583
  H     -7.716295    0.086076    0.725332
  H     10.249648   -3.777722   -0.932699
  H     -5.716184    1.583448    1.100896

 Multiplicity           Mult            ....    1
 Number of Electrons    NEL             ....  332
 Basis Dimension        Dim             .... 1605

ORBITAL ENERGIES
----------------

  NO   OCC          E(Eh)            E(eV)
   0   2.0000     -88.993631     -2421.6398
   1   2.0000     -88.984160     -2421.3821
   2   2.0000     -14.464750      -393.6059
   3   2.0000     -14.457515      -393.4090
   4   2.0000     -14.452121      -393.2622
   5   2.0000     -14.450084      -393.2068
   6   2.0000     -14.438741      -392.8981
   7   2.0000     -14.424259      -392.5041
   8   2.0000     -14.423505      -392.4835
   9   2.0000     -14.421024      -392.4160
  10   2.0000     -14.406956      -392.0332
  11   2.0000     -10.364372      -282.0289
  12   2.0000     -10.361811      -281.9592
  13   2.0000     -10.352584      -281.7081
  14   2.0000     -10.350356      -281.6475
  15   2.0000     -10.349522      -281.6248
  16   2.0000     -10.347340      -281.5654
  17   2.0000     -10.344575      -281.4902
  18   2.0000     -10.329635      -281.0837
  19   2.0000     -10.328223      -281.0452
  20   2.0000     -10.325144      -280.9615
  21   2.0000     -10.323106      -280.9060
  22   2.0000     -10.320080      -280.8236
  23   2.0000     -10.317328      -280.7488
  24   2.0000     -10.315900      -280.7099
  25   2.0000     -10.313005      -280.6311
  26   2.0000     -10.303836      -280.3816
  27   2.0000     -10.297848      -280.2187
  28   2.0000     -10.292577      -280.0753
  29   2.0000     -10.291557      -280.0475
  30   2.0000     -10.289568      -279.9934
  31   2.0000     -10.289469      -279.9907
  32   2.0000     -10.289070      -279.9798
  33   2.0000     -10.287174      -279.9282
  34   2.0000     -10.284629      -279.8590
  35   2.0000     -10.284134      -279.8455
  36   2.0000     -10.282682      -279.8060
  37   2.0000     -10.281046      -279.7615
  38   2.0000     -10.278874      -279.7024
  39   2.0000     -10.277885      -279.6755
  40   2.0000     -10.276438      -279.6361
  41   2.0000     -10.273693      -279.5614
  42   2.0000     -10.271034      -279.4890
  43   2.0000     -10.264942      -279.3233
  44   2.0000     -10.262693      -279.2621
  45   2.0000      -8.089916      -220.1378
  46   2.0000      -8.079448      -219.8530
  47   2.0000      -6.042981      -164.4379
  48   2.0000      -6.039088      -164.3319
  49   2.0000      -6.037010      -164.2754
  50   2.0000      -6.032694      -164.1580
  51   2.0000      -6.028530      -164.0446
  52   2.0000      -6.026509      -163.9897
  53   2.0000      -1.139634       -31.0110
  54   2.0000      -1.127145       -30.6712
  55   2.0000      -1.101734       -29.9797
  56   2.0000      -1.070090       -29.1186
  57   2.0000      -1.057436       -28.7743
  58   2.0000      -1.040193       -28.3051
  59   2.0000      -1.029363       -28.0104
  60   2.0000      -0.983572       -26.7643
  61   2.0000      -0.968783       -26.3619
  62   2.0000      -0.959965       -26.1220
  63   2.0000      -0.955013       -25.9872
  64   2.0000      -0.932787       -25.3824
  65   2.0000      -0.920373       -25.0446
  66   2.0000      -0.908078       -24.7101
  67   2.0000      -0.898573       -24.4514
  68   2.0000      -0.892092       -24.2751
  69   2.0000      -0.888786       -24.1851
  70   2.0000      -0.880439       -23.9580
  71   2.0000      -0.870177       -23.6787
  72   2.0000      -0.867049       -23.5936
  73   2.0000      -0.845710       -23.0129
  74   2.0000      -0.840099       -22.8603
  75   2.0000      -0.834819       -22.7166
  76   2.0000      -0.833017       -22.6675
  77   2.0000      -0.827933       -22.5292
  78   2.0000      -0.825839       -22.4722
  79   2.0000      -0.816006       -22.2046
  80   2.0000      -0.806794       -21.9540
  81   2.0000      -0.773164       -21.0389
  82   2.0000      -0.760744       -20.7009
  83   2.0000      -0.747544       -20.3417
  84   2.0000      -0.736684       -20.0462
  85   2.0000      -0.720989       -19.6191
  86   2.0000      -0.716152       -19.4875
  87   2.0000      -0.708031       -19.2665
  88   2.0000      -0.698829       -19.0161
  89   2.0000      -0.678184       -18.4543
  90   2.0000      -0.675392       -18.3783
  91   2.0000      -0.654812       -17.8183
  92   2.0000      -0.640430       -17.4270
  93   2.0000      -0.638403       -17.3718
  94   2.0000      -0.626878       -17.0582
  95   2.0000      -0.617018       -16.7899
  96   2.0000      -0.609965       -16.5980
  97   2.0000      -0.609009       -16.5720
  98   2.0000      -0.602430       -16.3930
  99   2.0000      -0.599778       -16.3208
 100   2.0000      -0.591443       -16.0940
 101   2.0000      -0.580229       -15.7888
 102   2.0000      -0.577466       -15.7137
 103   2.0000      -0.570355       -15.5202
 104   2.0000      -0.567765       -15.4497
 105   2.0000      -0.564180       -15.3521
 106   2.0000      -0.560996       -15.2655
 107   2.0000      -0.556993       -15.1565
 108   2.0000      -0.555015       -15.1027
 109   2.0000      -0.553401       -15.0588
 110   2.0000      -0.552644       -15.0382
 111   2.0000      -0.547869       -14.9083
 112   2.0000      -0.546378       -14.8677
 113   2.0000      -0.541665       -14.7395
 114   2.0000      -0.537510       -14.6264
 115   2.0000      -0.536873       -14.6091
 116   2.0000      -0.531849       -14.4724
 117   2.0000      -0.529099       -14.3975
 118   2.0000      -0.525763       -14.3067
 119   2.0000      -0.523030       -14.2324
 120   2.0000      -0.519431       -14.1344
 121   2.0000      -0.518309       -14.1039
 122   2.0000      -0.510981       -13.9045
 123   2.0000      -0.509390       -13.8612
 124   2.0000      -0.508309       -13.8318
 125   2.0000      -0.504681       -13.7331
 126   2.0000      -0.499683       -13.5971
 127   2.0000      -0.498528       -13.5656
 128   2.0000      -0.495367       -13.4796
 129   2.0000      -0.491513       -13.3747
 130   2.0000      -0.487660       -13.2699
 131   2.0000      -0.486222       -13.2308
 132   2.0000      -0.480930       -13.0868
 133   2.0000      -0.476490       -12.9660
 134   2.0000      -0.472317       -12.8524
 135   2.0000      -0.470769       -12.8103
 136   2.0000      -0.468537       -12.7495
 137   2.0000      -0.468423       -12.7464
 138   2.0000      -0.464225       -12.6322
 139   2.0000      -0.461679       -12.5629
 140   2.0000      -0.457092       -12.4381
 141   2.0000      -0.439493       -11.9592
 142   2.0000      -0.438639       -11.9360
 143   2.0000      -0.428911       -11.6713
 144   2.0000      -0.427883       -11.6433
 145   2.0000      -0.422033       -11.4841
 146   2.0000      -0.408694       -11.1211
 147   2.0000      -0.403941       -10.9918
 148   2.0000      -0.394248       -10.7280
 149   2.0000      -0.391452       -10.6519
 150   2.0000      -0.387812       -10.5529
 151   2.0000      -0.386800       -10.5254
 152   2.0000      -0.379985       -10.3399
 153   2.0000      -0.373044       -10.1510
 154   2.0000      -0.365688        -9.9509
 155   2.0000      -0.361922        -9.8484
 156   2.0000      -0.359403        -9.7798
 157   2.0000      -0.351569        -9.5667
 158   2.0000      -0.349436        -9.5086
 159   2.0000      -0.346225        -9.4213
 160   2.0000      -0.328404        -8.9363
 161   2.0000      -0.324822        -8.8388
 162   2.0000      -0.297317        -8.0904
 163   2.0000      -0.290776        -7.9124
 164   2.0000      -0.281511        -7.6603
 165   2.0000      -0.271500        -7.3879
 166   0.0000      -0.018379        -0.5001
 167   0.0000       0.012408         0.3376
 168   0.0000       0.033529         0.9124
 169   0.0000       0.036462         0.9922
 170   0.0000       0.053765         1.4630

MULLIKEN ATOMIC CHARGES
-----------------------
   0 C :   -0.175014
   1 C :   -0.131361
   2 C :   -0.024569
   3 C :    0.165849
   4 C :   -0.235485
   5 C :   -0.079494
   6 C :   -0.033812
   7 C :    0.186172
   8 N :   -0.303730
   9 C :   -0.224540
  10 C :   -0.097155
  11 C :   -0.274818
  12 C :    0.133959
  13 H :    0.129835
  14 H :    0.235351
  15 H :    0.124835
  16 H :    0.160942
  17 H :    0.110727
  18 H :    0.120247
  19 H :    0.118322
  20 S :    0.080247
  21 C :    0.088585
  22 N :   -0.102927
  23 N :   -0.224398
  24 C :    0.113741
  25 C :    0.104117
  26 N :   -0.176556
  27 N :   -0.189443
  28 C :    0.134248
  29 S :    0.055532
  30 C :   -0.452274
  31 C :    0.174991
  32 C :    0.046243
  33 C :    0.123442
  34 C :   -0.057538
  35 C :    0.225003
  36 N :   -0.219456
  37 C :    0.183222
  38 C :   -0.349161
  39 N :   -0.238893
  40 C :    0.086337
  41 C :   -0.372858
  42 N :   -0.248075
  43 C :    0.080952
  44 C :   -0.376545
  45 N :   -0.351880
  46 C :    0.196707
  47 C :   -0.370363
  48 C :   -0.370455
  49 C :   -0.339291
  50 C :   -0.338606
  51 C :   -0.354987
  52 H :    0.128706
  53 H :    0.139720
  54 H :    0.131095
  55 H :    0.124433
  56 H :    0.143570
  57 H :    0.116755
  58 H :    0.133041
  59 H :    0.132339
  60 H :    0.151177
  61 H :    0.136916
  62 H :    0.139276
  63 H :    0.143667
  64 H :    0.139700
  65 H :    0.145220
  66 H :    0.145065
  67 H :    0.144752
  68 H :    0.129642
  69 H :    0.121057
  70 H :    0.145845
  71 H :    0.127254
  72 H :    0.121558
  73 H :    0.143915
  74 H :    0.139215
  75 H :    0.142341
  76 H :    0.118160
  77 H :    0.149656
Sum of atomic charges:   -0.0000000

LOEWDIN ATOMIC CHARGES
----------------------
   0 C :   -0.158947
   1 C :   -0.090621
   2 C :   -0.077514
   3 C :   -0.145319
   4 C :   -0.138055
   5 C :   -0.141017
   6 C :   -0.028759
   7 C :   -0.143803
   8 N :    0.200335
   9 C :   -0.121173
  10 C :   -0.142814
  11 C :   -0.124076
  12 C :   -0.114733
  13 H :    0.145303
  14 H :    0.192816
  15 H :    0.147095
  16 H :    0.154815
  17 H :    0.141836
  18 H :    0.143828
  19 H :    0.143679
  20 S :    0.749825
  21 C :   -0.370217
  22 N :    0.052382
  23 N :    0.036024
  24 C :   -0.471370
  25 C :   -0.455750
  26 N :    0.038816
  27 N :    0.044811
  28 C :   -0.379879
  29 S :    0.730765
  30 C :   -0.091422
  31 C :   -0.194343
  32 C :   -0.143534
  33 C :   -0.097660
  34 C :   -0.126182
  35 C :   -0.187811
  36 N :    0.200751
  37 C :   -0.248933
  38 C :   -0.255757
  39 N :    0.176565
  40 C :   -0.271117
  41 C :   -0.272709
  42 N :    0.172764
  43 C :   -0.272795
  44 C :   -0.272766
  45 N :    0.158352
  46 C :   -0.244650
  47 C :   -0.257184
  48 C :   -0.261281
  49 C :   -0.262603
  50 C :   -0.263379
  51 C :   -0.256464
  52 H :    0.131602
  53 H :    0.129771
  54 H :    0.130112
  55 H :    0.131395
  56 H :    0.133565
  57 H :    0.128124
  58 H :    0.133675
  59 H :    0.133419
  60 H :    0.134126
  61 H :    0.135707
  62 H :    0.132974
  63 H :    0.131769
  64 H :    0.130248
  65 H :    0.131046
  66 H :    0.132073
  67 H :    0.132084
  68 H :    0.131131
  69 H :    0.127978
  70 H :    0.132470
  71 H :    0.130322
  72 H :    0.128345
  73 H :    0.130874
  74 H :    0.130067
  75 H :    0.131329
  76 H :    0.144831
  77 H :    0.154839

  Mayer bond orders larger than 0.1
B(  0-C ,  1-C ) :   1.5372 B(  0-C ,  5-C ) :   1.3535 B(  0-C , 19-H ) :   0.9851
B(  1-C ,  2-C ) :   1.2742 B(  1-C , 16-H ) :   0.9329 B(  2-C ,  3-C ) :   1.3545
B(  2-C ,  6-C ) :   1.0944 B(  3-C ,  4-C ) :   1.3090 B(  3-C ,  8-N ) :   1.1143
B(  4-C ,  5-C ) :   1.4837 B(  4-C , 17-H ) :   0.9757 B(  5-C , 18-H ) :   0.9804
B(  6-C ,  7-C ) :   1.3253 B(  6-C , 12-C ) :   1.2485 B(  7-C ,  8-N ) :   1.1510
B(  7-C ,  9-C ) :   1.2913 B(  8-N , 14-H ) :   0.9134 B(  9-C , 10-C ) :   1.4654
B(  9-C , 76-H ) :   0.9734 B( 10-C , 11-C ) :   1.4174 B( 10-C , 15-H ) :   0.9821
B( 11-C , 12-C ) :   1.4002 B( 11-C , 13-H ) :   0.9595 B( 12-C , 28-C ) :   0.9513
B( 20-S , 21-C ) :   1.3264 B( 20-S , 24-C ) :   1.3264 B( 21-C , 22-N ) :   1.7036
B( 21-C , 33-C ) :   0.9306 B( 22-N , 23-N ) :   1.1552 B( 23-N , 24-C ) :   1.6949
B( 24-C , 25-C ) :   0.9326 B( 25-C , 26-N ) :   1.7203 B( 25-C , 29-S ) :   1.3097
B( 26-N , 27-N ) :   1.1110 B( 27-N , 28-C ) :   1.6522 B( 28-C , 29-S ) :   1.2903
B( 30-C , 31-C ) :   1.3111 B( 30-C , 35-C ) :   1.3182 B( 30-C , 77-H ) :   0.9727
B( 31-C , 32-C ) :   1.3852 B( 31-C , 42-N ) :   1.0087 B( 32-C , 33-C ) :   1.2719
B( 32-C , 45-N ) :   1.0384 B( 33-C , 34-C ) :   1.2686 B( 34-C , 35-C ) :   1.3363
B( 34-C , 36-N ) :   1.1702 B( 35-C , 39-N ) :   1.0226 B( 36-N , 37-C ) :   1.8813
B( 37-C , 38-C ) :   0.9514 B( 37-C , 48-C ) :   0.9433 B( 38-C , 55-H ) :   0.9602
B( 38-C , 56-H ) :   0.9872 B( 38-C , 57-H ) :   0.9644 B( 39-N , 40-C ) :   1.8982
B( 40-C , 41-C ) :   0.9393 B( 40-C , 49-C ) :   0.9721 B( 41-C , 73-H ) :   0.9769
B( 41-C , 74-H ) :   0.9599 B( 41-C , 75-H ) :   0.9643 B( 42-N , 43-C ) :   1.8940
B( 43-C , 44-C ) :   0.9409 B( 43-C , 50-C ) :   0.9726 B( 44-C , 64-H ) :   0.9598
B( 44-C , 65-H ) :   0.9757 B( 44-C , 66-H ) :   0.9645 B( 45-N , 46-C ) :   1.8254
B( 46-C , 47-C ) :   0.9572 B( 46-C , 51-C ) :   0.9561 B( 47-C , 61-H ) :   0.9593
B( 47-C , 62-H ) :   0.9759 B( 47-C , 63-H ) :   0.9543 B( 48-C , 52-H ) :   0.9613
B( 48-C , 53-H ) :   0.9575 B( 48-C , 54-H ) :   0.9807 B( 49-C , 70-H ) :   0.9858
B( 49-C , 71-H ) :   0.9619 B( 49-C , 72-H ) :   0.9582 B( 50-C , 67-H ) :   0.9856
B( 50-C , 68-H ) :   0.9622 B( 50-C , 69-H ) :   0.9579 B( 51-C , 58-H ) :   0.9582
B( 51-C , 59-H ) :   0.9596 B( 51-C , 60-H ) :   0.9863

Dispersion correction           -0.043785360
FINAL SINGLE POINT ENERGY     -2604.733175036068

DIPOLE MOMENT
-------------
                                X             Y             Z
Electronic contribution:     73.02978     -10.50457       5.53703
Nuclear contribution   :    -75.12593      10.13766      -7.21727
                        -----------------------------------------
Total Dipole Moment    :     -2.09615      -0.36691      -1.68024
                        -----------------------------------------
Magnitude (a.u.)       :      2.71140
Magnitude (Debye)      :      6.89183

                             ****ORCA TERMINATED NORMALLY****
TOTAL RUN TIME: 0 days 0 hours 22 minutes 16 seconds 667 msec
