                         Program Version 4.0.0 -  RELEASE  -
|  1> #
|  2> !wB97X-D3 def2-TZVP def2/J RIJCOSX Grid5 FinalGrid6 TightSCF
|  3> %pal
|  4>  nprocs 24
|  5> end
|  6> %tddft
|  7>   Mode sTDDFT
|  8>   nroots 2
|  9>   Ethresh 10.0
| 10>   maxcore 5000
| 11>   triplets true
| 12> end
| 13> * xyz 0 1
| 14> C -4.34667710 -2.80511181 0.56354553
| 15> C -3.63794076 -1.65362566 0.23135755
| 16> C -4.34553870 -0.50914506 -0.18359631
| 17> C -5.76636692 -0.57434046 -0.23595961
| 18> C -6.48266473 -1.73579922 0.09156306
| 19> C -5.75020992 -2.85054239 0.49106874
| 20> C -3.97832871 0.84329191 -0.57344485
| 21> C -5.20555166 1.52760775 -0.82175600
| 22> N -6.26117795 0.65613352 -0.63103116
| 23> C -5.26999672 2.88256481 -1.17814030
| 24> C -4.06626936 3.57782442 -1.27282191
| 25> C -2.84543090 2.93535035 -1.03327302
| 26> C -2.76166343 1.56928163 -0.70054549
| 27> H -1.92530745 3.50675653 -1.13274307
| 28> H -7.24079250 0.89270598 -0.73001349
| 29> H -4.07020039 4.63083920 -1.53891321
| 30> H -2.55355158 -1.64586880 0.29037565
| 31> H -7.56783785 -1.76044079 0.03970080
| 32> H -6.27005331 -3.76827931 0.75297291
| 33> H -3.80506734 -3.69115131 0.88323688
| 34> S 3.25495184 -1.12604288 -0.02679644
| 35> C 4.67172763 -0.15981219 0.45494680
| 36> N 4.37885448 1.11886188 0.65867522
| 37> N 3.06643306 1.42324715 0.45861497
| 38> C 2.33064793 0.37833670 0.09670795
| 39> C 0.91332945 0.44462470 -0.17260876
| 40> N 0.18447554 -0.60219335 -0.53939270
| 41> N -1.13274161 -0.30011722 -0.73880558
| 42> C -1.43414655 0.97254621 -0.52419074
| 43> S -0.01833250 1.94180716 -0.04719071
| 44> N 9.47431032 0.20754735 1.49247391
| 45> C 8.44391358 -0.53949900 1.13247993
| 46> C 7.13166168 0.10873239 1.00287016
| 47> N 7.05693562 1.40265186 1.25392224
| 48> S 8.79855750 1.94515108 1.71432092
| 49> C 6.00610007 -0.72460611 0.60609199
| 50> C 6.26114217 -2.06816170 0.38095133
| 51> N 7.49391090 -2.67292245 0.50364631
| 52> C 8.54230944 -1.95767925 0.86068905
| 53> H 5.43939734 -2.72670440 0.08087495
| 54> H -6.22239726 3.37162448 -1.36213403
| 55> H 9.50968663 -2.46524369 0.95017052
| 56> *
| 57> $new_job
| 58> #
| 59> !wB97X-D3 def2-TZVP def2/J RIJCOSX Grid5 FinalGrid6 TightSCF
| 60> %pal
| 61>  nprocs 24
| 62> end
| 63> %elprop
| 64>    dipole     true
| 65>    quadrupole true
| 66> end
| 67> %tddft
| 68>   Mode sTDDFT
| 69>   nroots 2
| 70>   Ethresh 10.0
| 71>   maxcore 5000
| 72> end
| 73> * xyz 0 1
| 74> C -4.34667710 -2.80511181 0.56354553
| 75> C -3.63794076 -1.65362566 0.23135755
| 76> C -4.34553870 -0.50914506 -0.18359631
| 77> C -5.76636692 -0.57434046 -0.23595961
| 78> C -6.48266473 -1.73579922 0.09156306
| 79> C -5.75020992 -2.85054239 0.49106874
| 80> C -3.97832871 0.84329191 -0.57344485
| 81> C -5.20555166 1.52760775 -0.82175600
| 82> N -6.26117795 0.65613352 -0.63103116
| 83> C -5.26999672 2.88256481 -1.17814030
| 84> C -4.06626936 3.57782442 -1.27282191
| 85> C -2.84543090 2.93535035 -1.03327302
| 86> C -2.76166343 1.56928163 -0.70054549
| 87> H -1.92530745 3.50675653 -1.13274307
| 88> H -7.24079250 0.89270598 -0.73001349
| 89> H -4.07020039 4.63083920 -1.53891321
| 90> H -2.55355158 -1.64586880 0.29037565
| 91> H -7.56783785 -1.76044079 0.03970080
| 92> H -6.27005331 -3.76827931 0.75297291
| 93> H -3.80506734 -3.69115131 0.88323688
| 94> S 3.25495184 -1.12604288 -0.02679644
| 95> C 4.67172763 -0.15981219 0.45494680
| 96> N 4.37885448 1.11886188 0.65867522
| 97> N 3.06643306 1.42324715 0.45861497
| 98> C 2.33064793 0.37833670 0.09670795
| 99> C 0.91332945 0.44462470 -0.17260876
|100> N 0.18447554 -0.60219335 -0.53939270
|101> N -1.13274161 -0.30011722 -0.73880558
|102> C -1.43414655 0.97254621 -0.52419074
|103> S -0.01833250 1.94180716 -0.04719071
|104> N 9.47431032 0.20754735 1.49247391
|105> C 8.44391358 -0.53949900 1.13247993
|106> C 7.13166168 0.10873239 1.00287016
|107> N 7.05693562 1.40265186 1.25392224
|108> S 8.79855750 1.94515108 1.71432092
|109> C 6.00610007 -0.72460611 0.60609199
|110> C 6.26114217 -2.06816170 0.38095133
|111> N 7.49391090 -2.67292245 0.50364631
|112> C 8.54230944 -1.95767925 0.86068905
|113> H 5.43939734 -2.72670440 0.08087495
|114> H -6.22239726 3.37162448 -1.36213403
|115> H 9.50968663 -2.46524369 0.95017052
|116> *
|117>
|118>                          ****END OF INPUT****
 Total Charge           Charge          ....    0
 Multiplicity           Mult            ....    1
 Number of Electrons    NEL             ....  240
Dispersion correction           -0.019207643
FINAL SINGLE POINT ENERGY     -2438.840821056840

CARTESIAN COORDINATES (ANGSTROEM)
---------------------------------
  C     -4.346677   -2.805112    0.563546
  C     -3.637941   -1.653626    0.231358
  C     -4.345539   -0.509145   -0.183596
  C     -5.766367   -0.574340   -0.235960
  C     -6.482665   -1.735799    0.091563
  C     -5.750210   -2.850542    0.491069
  C     -3.978329    0.843292   -0.573445
  C     -5.205552    1.527608   -0.821756
  N     -6.261178    0.656134   -0.631031
  C     -5.269997    2.882565   -1.178140
  C     -4.066269    3.577824   -1.272822
  C     -2.845431    2.935350   -1.033273
  C     -2.761663    1.569282   -0.700545
  H     -1.925307    3.506757   -1.132743
  H     -7.240793    0.892706   -0.730013
  H     -4.070200    4.630839   -1.538913
  H     -2.553552   -1.645869    0.290376
  H     -7.567838   -1.760441    0.039701
  H     -6.270053   -3.768279    0.752973
  H     -3.805067   -3.691151    0.883237
  S      3.254952   -1.126043   -0.026796
  C      4.671728   -0.159812    0.454947
  N      4.378854    1.118862    0.658675
  N      3.066433    1.423247    0.458615
  C      2.330648    0.378337    0.096708
  C      0.913329    0.444625   -0.172609
  N      0.184476   -0.602193   -0.539393
  N     -1.132742   -0.300117   -0.738806
  C     -1.434147    0.972546   -0.524191
  S     -0.018333    1.941807   -0.047191
  N      9.474310    0.207547    1.492474
  C      8.443914   -0.539499    1.132480
  C      7.131662    0.108732    1.002870
  N      7.056936    1.402652    1.253922
  S      8.798557    1.945151    1.714321
  C      6.006100   -0.724606    0.606092
  C      6.261142   -2.068162    0.380951
  N      7.493911   -2.672922    0.503646
  C      8.542309   -1.957679    0.860689
  H      5.439397   -2.726704    0.080875
  H     -6.222397    3.371624   -1.362134
  H      9.509687   -2.465244    0.950171

 Multiplicity           Mult            ....    1
 Number of Electrons    NEL             ....  240
 Basis Dimension        Dim             .... 1070

ORBITAL ENERGIES
----------------

  NO   OCC          E(Eh)            E(eV)
   0   2.0000     -89.048193     -2423.1245
   1   2.0000     -89.017138     -2422.2795
   2   2.0000     -89.012360     -2422.1495
   3   2.0000     -14.505678      -394.7196
   4   2.0000     -14.495600      -394.4453
   5   2.0000     -14.479521      -394.0078
   6   2.0000     -14.478623      -393.9834
   7   2.0000     -14.473688      -393.8491
   8   2.0000     -14.473642      -393.8478
   9   2.0000     -14.468519      -393.7084
  10   2.0000     -14.464814      -393.6076
  11   2.0000     -10.388189      -282.6770
  12   2.0000     -10.385465      -282.6029
  13   2.0000     -10.383777      -282.5569
  14   2.0000     -10.379471      -282.4398
  15   2.0000     -10.370128      -282.1855
  16   2.0000     -10.369517      -282.1689
  17   2.0000     -10.367612      -282.1171
  18   2.0000     -10.360537      -281.9246
  19   2.0000     -10.349642      -281.6281
  20   2.0000     -10.337844      -281.3070
  21   2.0000     -10.328866      -281.0627
  22   2.0000     -10.324157      -280.9346
  23   2.0000     -10.308465      -280.5076
  24   2.0000     -10.302588      -280.3477
  25   2.0000     -10.299118      -280.2532
  26   2.0000     -10.298353      -280.2324
  27   2.0000     -10.291889      -280.0565
  28   2.0000     -10.287073      -279.9255
  29   2.0000     -10.286113      -279.8994
  30   2.0000     -10.280405      -279.7440
  31   2.0000     -10.273543      -279.5573
  32   2.0000      -8.136649      -221.4095
  33   2.0000      -8.113354      -220.7756
  34   2.0000      -8.108560      -220.6451
  35   2.0000      -6.092508      -165.7856
  36   2.0000      -6.086053      -165.6099
  37   2.0000      -6.081986      -165.4992
  38   2.0000      -6.066410      -165.0754
  39   2.0000      -6.062611      -164.9720
  40   2.0000      -6.061629      -164.9453
  41   2.0000      -6.060390      -164.9116
  42   2.0000      -6.057715      -164.8388
  43   2.0000      -6.055663      -164.7830
  44   2.0000      -1.164037       -31.6751
  45   2.0000      -1.155234       -31.4355
  46   2.0000      -1.116128       -30.3714
  47   2.0000      -1.110883       -30.2287
  48   2.0000      -1.079158       -29.3654
  49   2.0000      -1.023839       -27.8601
  50   2.0000      -0.998351       -27.1665
  51   2.0000      -0.985075       -26.8053
  52   2.0000      -0.968701       -26.3597
  53   2.0000      -0.964474       -26.2447
  54   2.0000      -0.942804       -25.6550
  55   2.0000      -0.921913       -25.0865
  56   2.0000      -0.908913       -24.7328
  57   2.0000      -0.905031       -24.6271
  58   2.0000      -0.893560       -24.3150
  59   2.0000      -0.878408       -23.9027
  60   2.0000      -0.850014       -23.1301
  61   2.0000      -0.844252       -22.9733
  62   2.0000      -0.808374       -21.9970
  63   2.0000      -0.792798       -21.5731
  64   2.0000      -0.778148       -21.1745
  65   2.0000      -0.763357       -20.7720
  66   2.0000      -0.743875       -20.2419
  67   2.0000      -0.732091       -19.9212
  68   2.0000      -0.726826       -19.7779
  69   2.0000      -0.716930       -19.5087
  70   2.0000      -0.703878       -19.1535
  71   2.0000      -0.679749       -18.4969
  72   2.0000      -0.667729       -18.1698
  73   2.0000      -0.652159       -17.7462
  74   2.0000      -0.633709       -17.2441
  75   2.0000      -0.627994       -17.0886
  76   2.0000      -0.623695       -16.9716
  77   2.0000      -0.619993       -16.8709
  78   2.0000      -0.612814       -16.6755
  79   2.0000      -0.583238       -15.8707
  80   2.0000      -0.581160       -15.8142
  81   2.0000      -0.576868       -15.6974
  82   2.0000      -0.569137       -15.4870
  83   2.0000      -0.567436       -15.4407
  84   2.0000      -0.559447       -15.2233
  85   2.0000      -0.553883       -15.0719
  86   2.0000      -0.549921       -14.9641
  87   2.0000      -0.544769       -14.8239
  88   2.0000      -0.541177       -14.7262
  89   2.0000      -0.533220       -14.5097
  90   2.0000      -0.529356       -14.4045
  91   2.0000      -0.527876       -14.3642
  92   2.0000      -0.522554       -14.2194
  93   2.0000      -0.516985       -14.0679
  94   2.0000      -0.505115       -13.7449
  95   2.0000      -0.495707       -13.4889
  96   2.0000      -0.481452       -13.1010
  97   2.0000      -0.476847       -12.9757
  98   2.0000      -0.471383       -12.8270
  99   2.0000      -0.467136       -12.7114
 100   2.0000      -0.449340       -12.2272
 101   2.0000      -0.446863       -12.1597
 102   2.0000      -0.440487       -11.9863
 103   2.0000      -0.437744       -11.9116
 104   2.0000      -0.428786       -11.6679
 105   2.0000      -0.422217       -11.4891
 106   2.0000      -0.414136       -11.2692
 107   2.0000      -0.407294       -11.0830
 108   2.0000      -0.403236       -10.9726
 109   2.0000      -0.399293       -10.8653
 110   2.0000      -0.388467       -10.5707
 111   2.0000      -0.388082       -10.5602
 112   2.0000      -0.379486       -10.3263
 113   2.0000      -0.376416       -10.2428
 114   2.0000      -0.369743       -10.0612
 115   2.0000      -0.368013       -10.0141
 116   2.0000      -0.346726        -9.4349
 117   2.0000      -0.326798        -8.8926
 118   2.0000      -0.303506        -8.2588
 119   2.0000      -0.293545        -7.9878
 120   0.0000      -0.074909        -2.0384
 121   0.0000      -0.034914        -0.9500
 122   0.0000       0.002782         0.0757
 123   0.0000       0.006628         0.1804
 124   0.0000       0.031378         0.8538

MULLIKEN ATOMIC CHARGES
-----------------------
   0 C :   -0.175812
   1 C :   -0.132499
   2 C :   -0.027048
   3 C :    0.178681
   4 C :   -0.245465
   5 C :   -0.073197
   6 C :   -0.024693
   7 C :    0.189423
   8 N :   -0.302344
   9 C :   -0.223166
  10 C :   -0.095545
  11 C :   -0.277208
  12 C :    0.119937
  13 H :    0.130007
  14 H :    0.237815
  15 H :    0.128519
  16 H :    0.155062
  17 H :    0.113144
  18 H :    0.123352
  19 H :    0.119102
  20 S :    0.054554
  21 C :    0.157035
  22 N :   -0.081408
  23 N :   -0.199418
  24 C :    0.114597
  25 C :    0.126643
  26 N :   -0.169475
  27 N :   -0.190661
  28 C :    0.150970
  29 S :    0.071236
  30 N :   -0.209286
  31 C :    0.070491
  32 C :    0.044742
  33 N :   -0.188786
  34 S :    0.208892
  35 C :   -0.039785
  36 C :   -0.027001
  37 N :   -0.256372
  38 C :    0.002627
  39 H :    0.151556
  40 H :    0.122585
  41 H :    0.168198
Sum of atomic charges:   -0.0000000

LOEWDIN ATOMIC CHARGES
----------------------
   0 C :   -0.157425
   1 C :   -0.092021
   2 C :   -0.078077
   3 C :   -0.144080
   4 C :   -0.135707
   5 C :   -0.138209
   6 C :   -0.027827
   7 C :   -0.142871
   8 N :    0.202090
   9 C :   -0.116326
  10 C :   -0.140607
  11 C :   -0.122306
  12 C :   -0.116754
  13 H :    0.145601
  14 H :    0.193898
  15 H :    0.148303
  16 H :    0.153706
  17 H :    0.142800
  18 H :    0.144841
  19 H :    0.144192
  20 S :    0.733896
  21 C :   -0.390452
  22 N :    0.068373
  23 N :    0.049796
  24 C :   -0.452518
  25 C :   -0.461652
  26 N :    0.045969
  27 N :    0.048222
  28 C :   -0.371725
  29 S :    0.743711
  30 N :   -0.044541
  31 C :   -0.274336
  32 C :   -0.227290
  33 N :   -0.028593
  34 S :    0.534203
  35 C :   -0.133657
  36 C :   -0.146749
  37 N :    0.129100
  38 C :   -0.130378
  39 H :    0.146551
  40 H :    0.146222
  41 H :    0.152627

  Mayer bond orders larger than 0.1
B(  0-C ,  1-C ) :   1.5358 B(  0-C ,  5-C ) :   1.3513 B(  0-C , 19-H ) :   0.9871
B(  1-C ,  2-C ) :   1.2653 B(  1-C , 16-H ) :   0.9385 B(  2-C ,  3-C ) :   1.3534
B(  2-C ,  6-C ) :   1.0838 B(  3-C ,  4-C ) :   1.2992 B(  3-C ,  8-N ) :   1.1147
B(  4-C ,  5-C ) :   1.4821 B(  4-C , 17-H ) :   0.9787 B(  5-C , 18-H ) :   0.9805
B(  6-C ,  7-C ) :   1.3194 B(  6-C , 12-C ) :   1.2393 B(  7-C ,  8-N ) :   1.1552
B(  7-C ,  9-C ) :   1.2867 B(  8-N , 14-H ) :   0.9125 B(  9-C , 10-C ) :   1.4668
B(  9-C , 40-H ) :   0.9729 B( 10-C , 11-C ) :   1.4195 B( 10-C , 15-H ) :   0.9801
B( 11-C , 12-C ) :   1.4016 B( 11-C , 13-H ) :   0.9619 B( 12-C , 28-C ) :   0.9553
B( 20-S , 21-C ) :   1.2774 B( 20-S , 24-C ) :   1.3186 B( 21-C , 22-N ) :   1.7086
B( 21-C , 35-C ) :   0.9972 B( 22-N , 23-N ) :   1.1482 B( 23-N , 24-C ) :   1.6933
B( 24-C , 25-C ) :   0.9357 B( 25-C , 26-N ) :   1.7003 B( 25-C , 29-S ) :   1.3033
B( 26-N , 27-N ) :   1.1292 B( 27-N , 28-C ) :   1.6388 B( 28-C , 29-S ) :   1.2922
B( 30-N , 31-C ) :   1.7209 B( 30-N , 33-N ) :   0.1270 B( 30-N , 34-S ) :   1.1294
B( 31-C , 32-C ) :   1.0912 B( 31-C , 38-C ) :   1.0819 B( 32-C , 33-N ) :   1.7309
B( 32-C , 35-C ) :   1.0651 B( 33-N , 34-S ) :   1.1115 B( 35-C , 36-C ) :   1.5821
B( 36-C , 37-N ) :   1.2522 B( 36-C , 39-H ) :   0.9746 B( 37-N , 38-C ) :   1.7308
B( 38-C , 41-H ) :   0.9622

Dispersion correction           -0.019207643
FINAL SINGLE POINT ENERGY     -2438.840821033221

DIPOLE MOMENT
-------------
                                X             Y             Z
Electronic contribution:     33.24175       5.76870       3.10302
Nuclear contribution   :    -34.53884      -5.44873      -3.19605
                        -----------------------------------------
Total Dipole Moment    :     -1.29709       0.31997      -0.09303
                        -----------------------------------------
Magnitude (a.u.)       :      1.33921
Magnitude (Debye)      :      3.40400

                             ****ORCA TERMINATED NORMALLY****
TOTAL RUN TIME: 0 days 0 hours 9 minutes 14 seconds 856 msec
