                         Program Version 4.0.0 -  RELEASE  -
|  1> #
|  2> !wB97X-D3 def2-TZVP def2/J RIJCOSX Grid5 FinalGrid6 TightSCF
|  3> %pal
|  4>  nprocs 24
|  5> end
|  6> %tddft
|  7>   Mode sTDDFT
|  8>   nroots 2
|  9>   Ethresh 10.0
| 10>   maxcore 5000
| 11>   triplets true
| 12> end
| 13> * xyz 0 1
| 14> C -4.84358036 2.73949080 1.20432607
| 15> C -4.03952377 1.66098924 0.84558457
| 16> C -4.64535475 0.48623005 0.35981078
| 17> C -6.06360134 0.45435333 0.24508812
| 18> C -6.87669006 1.53746972 0.61252559
| 19> C -6.24419945 2.68019527 1.09507120
| 20> C -4.16168057 -0.79679587 -0.12586372
| 21> C -5.32014625 -1.52747794 -0.52650099
| 22> N -6.44753108 -0.76732208 -0.27973540
| 23> C -5.26079521 -2.80657209 -1.09871548
| 24> C -3.99852357 -3.36465361 -1.29024440
| 25> C -2.84248316 -2.67242883 -0.90971548
| 26> C -2.88593038 -1.39877166 -0.30961696
| 27> H -1.87531511 -3.14694057 -1.05973322
| 28> H -7.39891067 -1.04778910 -0.48373222
| 29> H -3.90587339 -4.35042245 -1.73680697
| 30> H -2.96032407 1.73015247 0.94503388
| 31> H -7.95808309 1.48588621 0.51850870
| 32> H -6.84073577 3.53954169 1.38957051
| 33> H -4.38081997 3.64750223 1.58090218
| 34> S 3.21765689 -0.58916412 -0.61511058
| 35> C 4.50478220 0.34449260 0.19539438
| 36> N 4.03917123 1.11616993 1.16895546
| 37> N 2.69239546 1.03782399 1.34670391
| 38> C 2.09582753 0.19891241 0.50785142
| 39> C 0.67238393 -0.06357013 0.48840647
| 40> N -0.20204496 0.49629592 1.31376147
| 41> N -1.48728573 0.08977985 1.09742205
| 42> C -1.62505533 -0.77832045 0.10660589
| 43> S -0.06872885 -1.18762120 -0.66295582
| 44> C 5.90821469 0.25495440 -0.18557145
| 45> C 6.32823451 -0.57154095 -1.21197952
| 46> C 7.69633469 -0.67716391 -1.60431096
| 47> C 8.68229195 0.04061918 -0.98131361
| 48> C 8.33182236 0.92599096 0.09836791
| 49> C 6.92027034 1.04288438 0.51217554
| 50> N 9.22736154 1.65262036 0.74930913
| 51> S 8.27876201 2.61918001 2.04037505
| 52> N 6.64203444 1.86552936 1.50580223
| 53> H 5.59173464 -1.16843733 -1.74662180
| 54> H 7.94743798 -1.34909060 -2.42079474
| 55> H -6.16382484 -3.33541267 -1.39021139
| 56> H 9.72052532 -0.04766882 -1.28831779
| 57> *
| 58> $new_job
| 59> #
| 60> !wB97X-D3 def2-TZVP def2/J RIJCOSX Grid5 FinalGrid6 TightSCF
| 61> %pal
| 62>  nprocs 24
| 63> end
| 64> %elprop
| 65>    dipole     true
| 66>    quadrupole true
| 67> end
| 68> %tddft
| 69>   Mode sTDDFT
| 70>   nroots 2
| 71>   Ethresh 10.0
| 72>   maxcore 5000
| 73> end
| 74> * xyz 0 1
| 75> C -4.84358036 2.73949080 1.20432607
| 76> C -4.03952377 1.66098924 0.84558457
| 77> C -4.64535475 0.48623005 0.35981078
| 78> C -6.06360134 0.45435333 0.24508812
| 79> C -6.87669006 1.53746972 0.61252559
| 80> C -6.24419945 2.68019527 1.09507120
| 81> C -4.16168057 -0.79679587 -0.12586372
| 82> C -5.32014625 -1.52747794 -0.52650099
| 83> N -6.44753108 -0.76732208 -0.27973540
| 84> C -5.26079521 -2.80657209 -1.09871548
| 85> C -3.99852357 -3.36465361 -1.29024440
| 86> C -2.84248316 -2.67242883 -0.90971548
| 87> C -2.88593038 -1.39877166 -0.30961696
| 88> H -1.87531511 -3.14694057 -1.05973322
| 89> H -7.39891067 -1.04778910 -0.48373222
| 90> H -3.90587339 -4.35042245 -1.73680697
| 91> H -2.96032407 1.73015247 0.94503388
| 92> H -7.95808309 1.48588621 0.51850870
| 93> H -6.84073577 3.53954169 1.38957051
| 94> H -4.38081997 3.64750223 1.58090218
| 95> S 3.21765689 -0.58916412 -0.61511058
| 96> C 4.50478220 0.34449260 0.19539438
| 97> N 4.03917123 1.11616993 1.16895546
| 98> N 2.69239546 1.03782399 1.34670391
| 99> C 2.09582753 0.19891241 0.50785142
|100> C 0.67238393 -0.06357013 0.48840647
|101> N -0.20204496 0.49629592 1.31376147
|102> N -1.48728573 0.08977985 1.09742205
|103> C -1.62505533 -0.77832045 0.10660589
|104> S -0.06872885 -1.18762120 -0.66295582
|105> C 5.90821469 0.25495440 -0.18557145
|106> C 6.32823451 -0.57154095 -1.21197952
|107> C 7.69633469 -0.67716391 -1.60431096
|108> C 8.68229195 0.04061918 -0.98131361
|109> C 8.33182236 0.92599096 0.09836791
|110> C 6.92027034 1.04288438 0.51217554
|111> N 9.22736154 1.65262036 0.74930913
|112> S 8.27876201 2.61918001 2.04037505
|113> N 6.64203444 1.86552936 1.50580223
|114> H 5.59173464 -1.16843733 -1.74662180
|115> H 7.94743798 -1.34909060 -2.42079474
|116> H -6.16382484 -3.33541267 -1.39021139
|117> H 9.72052532 -0.04766882 -1.28831779
|118> *
|119>
|120>                          ****END OF INPUT****
 Total Charge           Charge          ....    0
 Multiplicity           Mult            ....    1
 Number of Electrons    NEL             ....  240
Dispersion correction           -0.019511444
FINAL SINGLE POINT ENERGY     -2422.798771552197

CARTESIAN COORDINATES (ANGSTROEM)
---------------------------------
  C     -4.843580    2.739491    1.204326
  C     -4.039524    1.660989    0.845585
  C     -4.645355    0.486230    0.359811
  C     -6.063601    0.454353    0.245088
  C     -6.876690    1.537470    0.612526
  C     -6.244199    2.680195    1.095071
  C     -4.161681   -0.796796   -0.125864
  C     -5.320146   -1.527478   -0.526501
  N     -6.447531   -0.767322   -0.279735
  C     -5.260795   -2.806572   -1.098715
  C     -3.998524   -3.364654   -1.290244
  C     -2.842483   -2.672429   -0.909715
  C     -2.885930   -1.398772   -0.309617
  H     -1.875315   -3.146941   -1.059733
  H     -7.398911   -1.047789   -0.483732
  H     -3.905873   -4.350422   -1.736807
  H     -2.960324    1.730152    0.945034
  H     -7.958083    1.485886    0.518509
  H     -6.840736    3.539542    1.389571
  H     -4.380820    3.647502    1.580902
  S      3.217657   -0.589164   -0.615111
  C      4.504782    0.344493    0.195394
  N      4.039171    1.116170    1.168955
  N      2.692395    1.037824    1.346704
  C      2.095828    0.198912    0.507851
  C      0.672384   -0.063570    0.488406
  N     -0.202045    0.496296    1.313761
  N     -1.487286    0.089780    1.097422
  C     -1.625055   -0.778320    0.106606
  S     -0.068729   -1.187621   -0.662956
  C      5.908215    0.254954   -0.185571
  C      6.328235   -0.571541   -1.211980
  C      7.696335   -0.677164   -1.604311
  C      8.682292    0.040619   -0.981314
  C      8.331822    0.925991    0.098368
  C      6.920270    1.042884    0.512176
  N      9.227362    1.652620    0.749309
  S      8.278762    2.619180    2.040375
  N      6.642034    1.865529    1.505802
  H      5.591735   -1.168437   -1.746622
  H      7.947438   -1.349091   -2.420795
  H     -6.163825   -3.335413   -1.390211
  H      9.720525   -0.047669   -1.288318

 Multiplicity           Mult            ....    1
 Number of Electrons    NEL             ....  240
 Basis Dimension        Dim             .... 1076

ORBITAL ENERGIES
----------------

  NO   OCC          E(Eh)            E(eV)
   0   2.0000     -89.034252     -2422.7452
   1   2.0000     -89.016573     -2422.2641
   2   2.0000     -89.013596     -2422.1831
   3   2.0000     -14.487214      -394.2171
   4   2.0000     -14.484773      -394.1507
   5   2.0000     -14.474101      -393.8603
   6   2.0000     -14.474045      -393.8588
   7   2.0000     -14.473314      -393.8389
   8   2.0000     -14.470994      -393.7758
   9   2.0000     -14.468755      -393.7148
  10   2.0000     -10.385906      -282.6149
  11   2.0000     -10.383756      -282.5564
  12   2.0000     -10.382855      -282.5318
  13   2.0000     -10.380850      -282.4773
  14   2.0000     -10.359658      -281.9006
  15   2.0000     -10.357580      -281.8441
  16   2.0000     -10.346870      -281.5527
  17   2.0000     -10.338085      -281.3136
  18   2.0000     -10.334424      -281.2140
  19   2.0000     -10.328158      -281.0435
  20   2.0000     -10.325437      -280.9694
  21   2.0000     -10.324884      -280.9544
  22   2.0000     -10.324759      -280.9510
  23   2.0000     -10.308741      -280.5151
  24   2.0000     -10.303055      -280.3604
  25   2.0000     -10.299897      -280.2744
  26   2.0000     -10.299225      -280.2561
  27   2.0000     -10.291133      -280.0360
  28   2.0000     -10.286044      -279.8975
  29   2.0000     -10.284989      -279.8688
  30   2.0000     -10.279052      -279.7072
  31   2.0000     -10.272008      -279.5155
  32   2.0000      -8.122898      -221.0353
  33   2.0000      -8.113375      -220.7762
  34   2.0000      -8.110344      -220.6937
  35   2.0000      -6.078774      -165.4118
  36   2.0000      -6.072358      -165.2373
  37   2.0000      -6.068145      -165.1226
  38   2.0000      -6.066281      -165.0719
  39   2.0000      -6.063259      -164.9897
  40   2.0000      -6.062700      -164.9744
  41   2.0000      -6.060484      -164.9141
  42   2.0000      -6.059601      -164.8901
  43   2.0000      -6.057484      -164.8325
  44   2.0000      -1.161322       -31.6012
  45   2.0000      -1.152322       -31.3563
  46   2.0000      -1.110649       -30.2223
  47   2.0000      -1.095704       -29.8156
  48   2.0000      -1.013515       -27.5791
  49   2.0000      -0.998383       -27.1674
  50   2.0000      -0.995264       -27.0825
  51   2.0000      -0.980008       -26.6674
  52   2.0000      -0.965774       -26.2800
  53   2.0000      -0.949568       -25.8391
  54   2.0000      -0.943895       -25.6847
  55   2.0000      -0.919682       -25.0258
  56   2.0000      -0.904855       -24.6224
  57   2.0000      -0.886534       -24.1238
  58   2.0000      -0.877835       -23.8871
  59   2.0000      -0.871473       -23.7140
  60   2.0000      -0.849222       -23.1085
  61   2.0000      -0.843842       -22.9621
  62   2.0000      -0.796154       -21.6644
  63   2.0000      -0.781348       -21.2616
  64   2.0000      -0.771085       -20.9823
  65   2.0000      -0.757193       -20.6043
  66   2.0000      -0.733742       -19.9661
  67   2.0000      -0.728974       -19.8364
  68   2.0000      -0.721497       -19.6329
  69   2.0000      -0.715230       -19.4624
  70   2.0000      -0.695924       -18.9371
  71   2.0000      -0.690286       -18.7836
  72   2.0000      -0.662326       -18.0228
  73   2.0000      -0.647720       -17.6254
  74   2.0000      -0.628265       -17.0960
  75   2.0000      -0.619572       -16.8594
  76   2.0000      -0.613643       -16.6981
  77   2.0000      -0.609300       -16.5799
  78   2.0000      -0.603638       -16.4258
  79   2.0000      -0.587851       -15.9963
  80   2.0000      -0.580421       -15.7941
  81   2.0000      -0.575089       -15.6490
  82   2.0000      -0.566023       -15.4023
  83   2.0000      -0.560939       -15.2639
  84   2.0000      -0.554775       -15.0962
  85   2.0000      -0.552594       -15.0369
  86   2.0000      -0.550313       -14.9748
  87   2.0000      -0.540290       -14.7020
  88   2.0000      -0.537124       -14.6159
  89   2.0000      -0.532199       -14.4819
  90   2.0000      -0.527082       -14.3426
  91   2.0000      -0.526687       -14.3319
  92   2.0000      -0.521282       -14.1848
  93   2.0000      -0.513754       -13.9800
  94   2.0000      -0.495242       -13.4762
  95   2.0000      -0.491453       -13.3731
  96   2.0000      -0.481799       -13.1104
  97   2.0000      -0.477411       -12.9910
  98   2.0000      -0.471407       -12.8276
  99   2.0000      -0.469526       -12.7765
 100   2.0000      -0.452148       -12.3036
 101   2.0000      -0.448248       -12.1974
 102   2.0000      -0.444095       -12.0844
 103   2.0000      -0.437167       -11.8959
 104   2.0000      -0.429615       -11.6904
 105   2.0000      -0.419253       -11.4085
 106   2.0000      -0.410635       -11.1740
 107   2.0000      -0.408415       -11.1135
 108   2.0000      -0.406101       -11.0506
 109   2.0000      -0.398471       -10.8430
 110   2.0000      -0.396433       -10.7875
 111   2.0000      -0.385942       -10.5020
 112   2.0000      -0.376191       -10.2367
 113   2.0000      -0.367354        -9.9962
 114   2.0000      -0.359342        -9.7782
 115   2.0000      -0.357626        -9.7315
 116   2.0000      -0.343081        -9.3357
 117   2.0000      -0.319752        -8.7009
 118   2.0000      -0.302838        -8.2406
 119   2.0000      -0.292779        -7.9669
 120   0.0000      -0.064953        -1.7675
 121   0.0000      -0.031147        -0.8475
 122   0.0000       0.006437         0.1752
 123   0.0000       0.020041         0.5453
 124   0.0000       0.027545         0.7495

MULLIKEN ATOMIC CHARGES
-----------------------
   0 C :   -0.175364
   1 C :   -0.141854
   2 C :   -0.017101
   3 C :    0.175232
   4 C :   -0.243260
   5 C :   -0.075534
   6 C :   -0.023019
   7 C :    0.186006
   8 N :   -0.302357
   9 C :   -0.218555
  10 C :   -0.099442
  11 C :   -0.274693
  12 C :    0.120942
  13 H :    0.124494
  14 H :    0.237609
  15 H :    0.126644
  16 H :    0.162384
  17 H :    0.113978
  18 H :    0.122858
  19 H :    0.122783
  20 S :   -0.022036
  21 C :    0.169280
  22 N :   -0.050213
  23 N :   -0.172863
  24 C :    0.079034
  25 C :    0.148982
  26 N :   -0.121617
  27 N :   -0.180869
  28 C :    0.175752
  29 S :   -0.003541
  30 C :   -0.005877
  31 C :   -0.140381
  32 C :   -0.124031
  33 C :   -0.161721
  34 C :    0.096342
  35 C :    0.043718
  36 N :   -0.221138
  37 S :    0.194410
  38 N :   -0.184463
  39 H :    0.143897
  40 H :    0.141293
  41 H :    0.121997
  42 H :    0.152294
Sum of atomic charges:   -0.0000000

LOEWDIN ATOMIC CHARGES
----------------------
   0 C :   -0.155549
   1 C :   -0.090500
   2 C :   -0.078206
   3 C :   -0.144180
   4 C :   -0.136043
   5 C :   -0.137323
   6 C :   -0.027214
   7 C :   -0.142889
   8 N :    0.202073
   9 C :   -0.116646
  10 C :   -0.142006
  11 C :   -0.124758
  12 C :   -0.117183
  13 H :    0.144088
  14 H :    0.193871
  15 H :    0.147783
  16 H :    0.154919
  17 H :    0.142701
  18 H :    0.144986
  19 H :    0.145261
  20 S :    0.688339
  21 C :   -0.385537
  22 N :    0.077813
  23 N :    0.077697
  24 C :   -0.452622
  25 C :   -0.459011
  26 N :    0.075182
  27 N :    0.055872
  28 C :   -0.370709
  29 S :    0.698455
  30 C :   -0.119478
  31 C :   -0.085025
  32 C :   -0.128673
  33 C :   -0.086337
  34 C :   -0.263312
  35 C :   -0.220619
  36 N :   -0.062366
  37 S :    0.520175
  38 N :   -0.029877
  39 H :    0.150221
  40 H :    0.153139
  41 H :    0.146153
  42 H :    0.157333

  Mayer bond orders larger than 0.1
B(  0-C ,  1-C ) :   1.5435 B(  0-C ,  5-C ) :   1.3503 B(  0-C , 19-H ) :   0.9860
B(  1-C ,  2-C ) :   1.2579 B(  1-C , 16-H ) :   0.9373 B(  2-C ,  3-C ) :   1.3521
B(  2-C ,  6-C ) :   1.0796 B(  3-C ,  4-C ) :   1.2989 B(  3-C ,  8-N ) :   1.1135
B(  4-C ,  5-C ) :   1.4808 B(  4-C , 17-H ) :   0.9780 B(  5-C , 18-H ) :   0.9825
B(  6-C ,  7-C ) :   1.3156 B(  6-C , 12-C ) :   1.2402 B(  7-C ,  8-N ) :   1.1575
B(  7-C ,  9-C ) :   1.2889 B(  8-N , 14-H ) :   0.9125 B(  9-C , 10-C ) :   1.4647
B(  9-C , 41-H ) :   0.9738 B( 10-C , 11-C ) :   1.4215 B( 10-C , 15-H ) :   0.9814
B( 11-C , 12-C ) :   1.4023 B( 11-C , 13-H ) :   0.9633 B( 12-C , 28-C ) :   0.9431
B( 20-S , 21-C ) :   1.2643 B( 20-S , 24-C ) :   1.2770 B( 21-C , 22-N ) :   1.7087
B( 21-C , 30-C ) :   0.9940 B( 22-N , 23-N ) :   1.1073 B( 23-N , 24-C ) :   1.7066
B( 24-C , 25-C ) :   0.9868 B( 25-C , 26-N ) :   1.6979 B( 25-C , 29-S ) :   1.2689
B( 26-N , 27-N ) :   1.0940 B( 27-N , 28-C ) :   1.6468 B( 28-C , 29-S ) :   1.2708
B( 30-C , 31-C ) :   1.5936 B( 30-C , 35-C ) :   1.0623 B( 31-C , 32-C ) :   1.1947
B( 31-C , 39-H ) :   0.9503 B( 32-C , 33-C ) :   1.6760 B( 32-C , 40-H ) :   0.9743
B( 33-C , 34-C ) :   1.1190 B( 33-C , 42-H ) :   0.9617 B( 34-C , 35-C ) :   1.0498
B( 34-C , 36-N ) :   1.7250 B( 35-C , 38-N ) :   1.7389 B( 36-N , 37-S ) :   1.1186
B( 36-N , 38-N ) :   0.1226 B( 37-S , 38-N ) :   1.1106

Dispersion correction           -0.019511444
FINAL SINGLE POINT ENERGY     -2422.798771599213

DIPOLE MOMENT
-------------
                                X             Y             Z
Electronic contribution:     26.49636       3.24431       4.88688
Nuclear contribution   :    -27.37856      -5.36911      -7.33003
                        -----------------------------------------
Total Dipole Moment    :     -0.88220      -2.12480      -2.44315
                        -----------------------------------------
Magnitude (a.u.)       :      3.35590
Magnitude (Debye)      :      8.53001

                             ****ORCA TERMINATED NORMALLY****
TOTAL RUN TIME: 0 days 0 hours 11 minutes 34 seconds 601 msec
