                         Program Version 4.0.0 -  RELEASE  -
|  1> #
|  2> !wB97X-D3 def2-TZVP def2/J RIJCOSX Grid5 FinalGrid6 TightSCF
|  3> %pal
|  4>  nprocs 24
|  5> end
|  6> %tddft
|  7>   Mode sTDDFT
|  8>   nroots 2
|  9>   Ethresh 10.0
| 10>   maxcore 5000
| 11>   triplets true
| 12> end
| 13> * xyz 0 1
| 14> C 6.88179044 3.21973381 -0.58213007
| 15> C 6.60120859 1.86109874 -0.70428427
| 16> C 7.63409963 0.92625726 -0.50452243
| 17> C 8.94427065 1.41242636 -0.23262170
| 18> C 9.22891645 2.78060235 -0.10364658
| 19> C 8.17579493 3.67563489 -0.27423200
| 20> C 7.73750951 -0.52234625 -0.57651831
| 21> C 9.11659800 -0.82935711 -0.38911462
| 22> N 9.81650782 0.34106855 -0.15650119
| 23> C 9.62346460 -2.13545549 -0.46437414
| 24> C 8.72112706 -3.15706770 -0.75316219
| 25> C 7.35591968 -2.88824554 -0.92171664
| 26> C 6.83065937 -1.58747597 -0.81447736
| 27> H 6.67127470 -3.70878692 -1.11593285
| 28> H 10.81629658 0.40591995 -0.00932140
| 29> H 9.07541851 -4.18086181 -0.83403637
| 30> H 5.59720527 1.54250373 -0.96935269
| 31> H 10.23623105 3.12768126 0.11017945
| 32> H 8.35877552 4.74295544 -0.18382273
| 33> H 6.08695936 3.94466798 -0.73410650
| 34> S 1.29656980 0.41430283 1.07904288
| 35> C 1.62707073 -0.75885917 -0.21588802
| 36> N 0.52699661 -1.23796578 -0.78260894
| 37> N -0.62437029 -0.73500676 -0.25899824
| 38> C -0.42697488 0.14272494 0.72183853
| 39> C 2.97409291 -1.13290697 -0.58984421
| 40> N 3.27633795 -1.99266510 -1.55260791
| 41> N 4.62209885 -2.17804529 -1.70979433
| 42> C 5.36803517 -1.44645909 -0.89593946
| 43> S 4.39879386 -0.45280058 0.21765986
| 44> C -6.60618673 -0.09752413 -1.55864211
| 45> C -7.17500244 -0.74413859 -2.65391931
| 46> C -6.63117775 -1.94107933 -3.12493146
| 47> C -5.50088190 -2.47975377 -2.50721445
| 48> C -4.92414516 -1.83242907 -1.41656536
| 49> C -5.48015110 -0.64262744 -0.91506091
| 50> C -4.82624205 0.03830841 0.23586784
| 51> C -5.59382302 0.75312351 1.26178592
| 52> N -5.00199665 1.51655305 2.17699207
| 53> C -3.62228310 1.53713615 2.16966918
| 54> C -2.87064355 0.72037286 1.24717562
| 55> N -3.49449627 -0.00416187 0.26331922
| 56> C -2.81415573 2.25873944 3.04703622
| 57> S -1.13688429 1.92559660 2.74709632
| 58> C -1.47783383 0.81427091 1.43887519
| 59> C -7.07550857 0.62712598 1.36575901
| 60> C -7.72313589 -0.60748071 1.17991638
| 61> C -9.10643460 -0.70613106 1.31419875
| 62> C -9.86436882 0.42221515 1.63472286
| 63> C -9.22978004 1.64877225 1.83876194
| 64> C -7.84528908 1.74960585 1.71404379
| 65> H -7.34739474 2.70230465 1.87553698
| 66> H -9.81534558 2.52721796 2.09835093
| 67> H -10.94397964 0.34355059 1.73293889
| 68> H -9.59469423 -1.66651472 1.17034075
| 69> H -7.13943952 -1.49429436 0.94590589
| 70> H -4.03986687 -2.24415581 -0.93739113
| 71> H -5.06637707 -3.40389186 -2.87981795
| 72> H -7.08041481 -2.44544568 -3.97658414
| 73> H -8.04302709 -0.31069369 -3.14405995
| 74> H -7.02428353 0.84498259 -1.21398952
| 75> H 10.68038183 -2.33855740 -0.31645531
| 76> H -3.13361659 2.93533097 3.82947226
| 77> *
| 78> $new_job
| 79> #
| 80> !wB97X-D3 def2-TZVP def2/J RIJCOSX Grid5 FinalGrid6 TightSCF
| 81> %pal
| 82>  nprocs 24
| 83> end
| 84> %elprop
| 85>    dipole     true
| 86>    quadrupole true
| 87> end
| 88> %tddft
| 89>   Mode sTDDFT
| 90>   nroots 2
| 91>   Ethresh 10.0
| 92>   maxcore 5000
| 93> end
| 94> * xyz 0 1
| 95> C 6.88179044 3.21973381 -0.58213007
| 96> C 6.60120859 1.86109874 -0.70428427
| 97> C 7.63409963 0.92625726 -0.50452243
| 98> C 8.94427065 1.41242636 -0.23262170
| 99> C 9.22891645 2.78060235 -0.10364658
|100> C 8.17579493 3.67563489 -0.27423200
|101> C 7.73750951 -0.52234625 -0.57651831
|102> C 9.11659800 -0.82935711 -0.38911462
|103> N 9.81650782 0.34106855 -0.15650119
|104> C 9.62346460 -2.13545549 -0.46437414
|105> C 8.72112706 -3.15706770 -0.75316219
|106> C 7.35591968 -2.88824554 -0.92171664
|107> C 6.83065937 -1.58747597 -0.81447736
|108> H 6.67127470 -3.70878692 -1.11593285
|109> H 10.81629658 0.40591995 -0.00932140
|110> H 9.07541851 -4.18086181 -0.83403637
|111> H 5.59720527 1.54250373 -0.96935269
|112> H 10.23623105 3.12768126 0.11017945
|113> H 8.35877552 4.74295544 -0.18382273
|114> H 6.08695936 3.94466798 -0.73410650
|115> S 1.29656980 0.41430283 1.07904288
|116> C 1.62707073 -0.75885917 -0.21588802
|117> N 0.52699661 -1.23796578 -0.78260894
|118> N -0.62437029 -0.73500676 -0.25899824
|119> C -0.42697488 0.14272494 0.72183853
|120> C 2.97409291 -1.13290697 -0.58984421
|121> N 3.27633795 -1.99266510 -1.55260791
|122> N 4.62209885 -2.17804529 -1.70979433
|123> C 5.36803517 -1.44645909 -0.89593946
|124> S 4.39879386 -0.45280058 0.21765986
|125> C -6.60618673 -0.09752413 -1.55864211
|126> C -7.17500244 -0.74413859 -2.65391931
|127> C -6.63117775 -1.94107933 -3.12493146
|128> C -5.50088190 -2.47975377 -2.50721445
|129> C -4.92414516 -1.83242907 -1.41656536
|130> C -5.48015110 -0.64262744 -0.91506091
|131> C -4.82624205 0.03830841 0.23586784
|132> C -5.59382302 0.75312351 1.26178592
|133> N -5.00199665 1.51655305 2.17699207
|134> C -3.62228310 1.53713615 2.16966918
|135> C -2.87064355 0.72037286 1.24717562
|136> N -3.49449627 -0.00416187 0.26331922
|137> C -2.81415573 2.25873944 3.04703622
|138> S -1.13688429 1.92559660 2.74709632
|139> C -1.47783383 0.81427091 1.43887519
|140> C -7.07550857 0.62712598 1.36575901
|141> C -7.72313589 -0.60748071 1.17991638
|142> C -9.10643460 -0.70613106 1.31419875
|143> C -9.86436882 0.42221515 1.63472286
|144> C -9.22978004 1.64877225 1.83876194
|145> C -7.84528908 1.74960585 1.71404379
|146> H -7.34739474 2.70230465 1.87553698
|147> H -9.81534558 2.52721796 2.09835093
|148> H -10.94397964 0.34355059 1.73293889
|149> H -9.59469423 -1.66651472 1.17034075
|150> H -7.13943952 -1.49429436 0.94590589
|151> H -4.03986687 -2.24415581 -0.93739113
|152> H -5.06637707 -3.40389186 -2.87981795
|153> H -7.08041481 -2.44544568 -3.97658414
|154> H -8.04302709 -0.31069369 -3.14405995
|155> H -7.02428353 0.84498259 -1.21398952
|156> H 10.68038183 -2.33855740 -0.31645531
|157> H -3.13361659 2.93533097 3.82947226
|158> *
|159>
|160>                          ****END OF INPUT****
 Total Charge           Charge          ....    0
 Multiplicity           Mult            ....    1
 Number of Electrons    NEL             ....  320
Dispersion correction           -0.031757401
FINAL SINGLE POINT ENERGY     -2884.967697233303

CARTESIAN COORDINATES (ANGSTROEM)
---------------------------------
  C      6.881790    3.219734   -0.582130
  C      6.601209    1.861099   -0.704284
  C      7.634100    0.926257   -0.504522
  C      8.944271    1.412426   -0.232622
  C      9.228916    2.780602   -0.103647
  C      8.175795    3.675635   -0.274232
  C      7.737510   -0.522346   -0.576518
  C      9.116598   -0.829357   -0.389115
  N      9.816508    0.341069   -0.156501
  C      9.623465   -2.135455   -0.464374
  C      8.721127   -3.157068   -0.753162
  C      7.355920   -2.888246   -0.921717
  C      6.830659   -1.587476   -0.814477
  H      6.671275   -3.708787   -1.115933
  H     10.816297    0.405920   -0.009321
  H      9.075419   -4.180862   -0.834036
  H      5.597205    1.542504   -0.969353
  H     10.236231    3.127681    0.110179
  H      8.358776    4.742955   -0.183823
  H      6.086959    3.944668   -0.734106
  S      1.296570    0.414303    1.079043
  C      1.627071   -0.758859   -0.215888
  N      0.526997   -1.237966   -0.782609
  N     -0.624370   -0.735007   -0.258998
  C     -0.426975    0.142725    0.721839
  C      2.974093   -1.132907   -0.589844
  N      3.276338   -1.992665   -1.552608
  N      4.622099   -2.178045   -1.709794
  C      5.368035   -1.446459   -0.895939
  S      4.398794   -0.452801    0.217660
  C     -6.606187   -0.097524   -1.558642
  C     -7.175002   -0.744139   -2.653919
  C     -6.631178   -1.941079   -3.124931
  C     -5.500882   -2.479754   -2.507214
  C     -4.924145   -1.832429   -1.416565
  C     -5.480151   -0.642627   -0.915061
  C     -4.826242    0.038308    0.235868
  C     -5.593823    0.753124    1.261786
  N     -5.001997    1.516553    2.176992
  C     -3.622283    1.537136    2.169669
  C     -2.870644    0.720373    1.247176
  N     -3.494496   -0.004162    0.263319
  C     -2.814156    2.258739    3.047036
  S     -1.136884    1.925597    2.747096
  C     -1.477834    0.814271    1.438875
  C     -7.075509    0.627126    1.365759
  C     -7.723136   -0.607481    1.179916
  C     -9.106435   -0.706131    1.314199
  C     -9.864369    0.422215    1.634723
  C     -9.229780    1.648772    1.838762
  C     -7.845289    1.749606    1.714044
  H     -7.347395    2.702305    1.875537
  H     -9.815346    2.527218    2.098351
  H    -10.943980    0.343551    1.732939
  H     -9.594694   -1.666515    1.170341
  H     -7.139440   -1.494294    0.945906
  H     -4.039867   -2.244156   -0.937391
  H     -5.066377   -3.403892   -2.879818
  H     -7.080415   -2.445446   -3.976584
  H     -8.043027   -0.310694   -3.144060
  H     -7.024284    0.844983   -1.213990
  H     10.680382   -2.338557   -0.316455
  H     -3.133617    2.935331    3.829472

 Multiplicity           Mult            ....    1
 Number of Electrons    NEL             ....  320
 Basis Dimension        Dim             .... 1496

ORBITAL ENERGIES
----------------

  NO   OCC          E(Eh)            E(eV)
   0   2.0000     -89.017266     -2422.2830
   1   2.0000     -89.009186     -2422.0631
   2   2.0000     -89.007675     -2422.0220
   3   2.0000     -14.476185      -393.9170
   4   2.0000     -14.468502      -393.7080
   5   2.0000     -14.466328      -393.6488
   6   2.0000     -14.463671      -393.5765
   7   2.0000     -14.462251      -393.5379
   8   2.0000     -14.452349      -393.2684
   9   2.0000     -14.446393      -393.1063
  10   2.0000     -10.380980      -282.4808
  11   2.0000     -10.377115      -282.3757
  12   2.0000     -10.376587      -282.3613
  13   2.0000     -10.373461      -282.2762
  14   2.0000     -10.356713      -281.8205
  15   2.0000     -10.356045      -281.8023
  16   2.0000     -10.347111      -281.5592
  17   2.0000     -10.343197      -281.4527
  18   2.0000     -10.339872      -281.3622
  19   2.0000     -10.338788      -281.3327
  20   2.0000     -10.337480      -281.2971
  21   2.0000     -10.334302      -281.2106
  22   2.0000     -10.319935      -280.8197
  23   2.0000     -10.307249      -280.4745
  24   2.0000     -10.305347      -280.4228
  25   2.0000     -10.301114      -280.3076
  26   2.0000     -10.299935      -280.2755
  27   2.0000     -10.299157      -280.2543
  28   2.0000     -10.295317      -280.1498
  29   2.0000     -10.294083      -280.1162
  30   2.0000     -10.293944      -280.1125
  31   2.0000     -10.293103      -280.0896
  32   2.0000     -10.292604      -280.0760
  33   2.0000     -10.292497      -280.0731
  34   2.0000     -10.292475      -280.0725
  35   2.0000     -10.290846      -280.0282
  36   2.0000     -10.290833      -280.0278
  37   2.0000     -10.290602      -280.0215
  38   2.0000     -10.290500      -280.0187
  39   2.0000     -10.288279      -279.9583
  40   2.0000     -10.286369      -279.9063
  41   2.0000     -10.286255      -279.9032
  42   2.0000     -10.284575      -279.8575
  43   2.0000     -10.283102      -279.8174
  44   2.0000      -8.112687      -220.7574
  45   2.0000      -8.106012      -220.5758
  46   2.0000      -8.104500      -220.5347
  47   2.0000      -6.065662      -165.0551
  48   2.0000      -6.061592      -164.9443
  49   2.0000      -6.060525      -164.9153
  50   2.0000      -6.058988      -164.8734
  51   2.0000      -6.057426      -164.8309
  52   2.0000      -6.055342      -164.7742
  53   2.0000      -6.053707      -164.7298
  54   2.0000      -6.053020      -164.7111
  55   2.0000      -6.051645      -164.6736
  56   2.0000      -1.153508       -31.3885
  57   2.0000      -1.144619       -31.1467
  58   2.0000      -1.113310       -30.2947
  59   2.0000      -1.107474       -30.1359
  60   2.0000      -1.038013       -28.2458
  61   2.0000      -1.019323       -27.7372
  62   2.0000      -0.992815       -27.0159
  63   2.0000      -0.986338       -26.8396
  64   2.0000      -0.978192       -26.6180
  65   2.0000      -0.975065       -26.5329
  66   2.0000      -0.973286       -26.4844
  67   2.0000      -0.945875       -25.7386
  68   2.0000      -0.939267       -25.5588
  69   2.0000      -0.915421       -24.9099
  70   2.0000      -0.911240       -24.7961
  71   2.0000      -0.906840       -24.6764
  72   2.0000      -0.884588       -24.0709
  73   2.0000      -0.878170       -23.8962
  74   2.0000      -0.871964       -23.7273
  75   2.0000      -0.865827       -23.5603
  76   2.0000      -0.856195       -23.2983
  77   2.0000      -0.853000       -23.2113
  78   2.0000      -0.850607       -23.1462
  79   2.0000      -0.846798       -23.0425
  80   2.0000      -0.789872       -21.4935
  81   2.0000      -0.782356       -21.2890
  82   2.0000      -0.774312       -21.0701
  83   2.0000      -0.766478       -20.8569
  84   2.0000      -0.739817       -20.1315
  85   2.0000      -0.732207       -19.9244
  86   2.0000      -0.727036       -19.7836
  87   2.0000      -0.724364       -19.7110
  88   2.0000      -0.720661       -19.6102
  89   2.0000      -0.717817       -19.5328
  90   2.0000      -0.705299       -19.1922
  91   2.0000      -0.699285       -19.0285
  92   2.0000      -0.685293       -18.6478
  93   2.0000      -0.680882       -18.5278
  94   2.0000      -0.663233       -18.0475
  95   2.0000      -0.652588       -17.7578
  96   2.0000      -0.640608       -17.4318
  97   2.0000      -0.636786       -17.3278
  98   2.0000      -0.635098       -17.2819
  99   2.0000      -0.620276       -16.8786
 100   2.0000      -0.613712       -16.7000
 101   2.0000      -0.600601       -16.3432
 102   2.0000      -0.589867       -16.0511
 103   2.0000      -0.576066       -15.6755
 104   2.0000      -0.574084       -15.6216
 105   2.0000      -0.571585       -15.5536
 106   2.0000      -0.565496       -15.3879
 107   2.0000      -0.564603       -15.3636
 108   2.0000      -0.561209       -15.2713
 109   2.0000      -0.557157       -15.1610
 110   2.0000      -0.554545       -15.0899
 111   2.0000      -0.552695       -15.0396
 112   2.0000      -0.551412       -15.0047
 113   2.0000      -0.548891       -14.9361
 114   2.0000      -0.542089       -14.7510
 115   2.0000      -0.540828       -14.7167
 116   2.0000      -0.536187       -14.5904
 117   2.0000      -0.534297       -14.5390
 118   2.0000      -0.530131       -14.4256
 119   2.0000      -0.527777       -14.3615
 120   2.0000      -0.527069       -14.3423
 121   2.0000      -0.523503       -14.2452
 122   2.0000      -0.521826       -14.1996
 123   2.0000      -0.515737       -14.0339
 124   2.0000      -0.508743       -13.8436
 125   2.0000      -0.492629       -13.4051
 126   2.0000      -0.488407       -13.2902
 127   2.0000      -0.474982       -12.9249
 128   2.0000      -0.474194       -12.9035
 129   2.0000      -0.471973       -12.8430
 130   2.0000      -0.469486       -12.7754
 131   2.0000      -0.467946       -12.7335
 132   2.0000      -0.454305       -12.3623
 133   2.0000      -0.453828       -12.3493
 134   2.0000      -0.450875       -12.2689
 135   2.0000      -0.447896       -12.1879
 136   2.0000      -0.445623       -12.1260
 137   2.0000      -0.443677       -12.0731
 138   2.0000      -0.443429       -12.0663
 139   2.0000      -0.438475       -11.9315
 140   2.0000      -0.422886       -11.5073
 141   2.0000      -0.421063       -11.4577
 142   2.0000      -0.408243       -11.1089
 143   2.0000      -0.406368       -11.0578
 144   2.0000      -0.400425       -10.8961
 145   2.0000      -0.393057       -10.6956
 146   2.0000      -0.387652       -10.5486
 147   2.0000      -0.375018       -10.2047
 148   2.0000      -0.373175       -10.1546
 149   2.0000      -0.370671       -10.0865
 150   2.0000      -0.362123        -9.8539
 151   2.0000      -0.357758        -9.7351
 152   2.0000      -0.350190        -9.5291
 153   2.0000      -0.344916        -9.3856
 154   2.0000      -0.340472        -9.2647
 155   2.0000      -0.338961        -9.2236
 156   2.0000      -0.313831        -8.5398
 157   2.0000      -0.307870        -8.3776
 158   2.0000      -0.300795        -8.1850
 159   2.0000      -0.290947        -7.9171
 160   0.0000      -0.053994        -1.4693
 161   0.0000      -0.020970        -0.5706
 162   0.0000       0.008147         0.2217
 163   0.0000       0.019170         0.5216
 164   0.0000       0.026996         0.7346

MULLIKEN ATOMIC CHARGES
-----------------------
   0 C :   -0.171009
   1 C :   -0.129219
   2 C :   -0.039478
   3 C :    0.165639
   4 C :   -0.233094
   5 C :   -0.082691
   6 C :   -0.036753
   7 C :    0.173228
   8 N :   -0.300497
   9 C :   -0.230696
  10 C :   -0.057956
  11 C :   -0.289985
  12 C :    0.168107
  13 H :    0.148796
  14 H :    0.238320
  15 H :    0.130244
  16 H :    0.146177
  17 H :    0.118453
  18 H :    0.125577
  19 H :    0.121186
  20 S :   -0.014671
  21 C :    0.113009
  22 N :   -0.139911
  23 N :   -0.084124
  24 C :    0.217990
  25 C :    0.086330
  26 N :   -0.129352
  27 N :   -0.137575
  28 C :    0.089586
  29 S :   -0.005381
  30 C :   -0.200606
  31 C :   -0.147674
  32 C :   -0.101543
  33 C :   -0.132182
  34 C :   -0.193422
  35 C :    0.016707
  36 C :    0.231878
  37 C :    0.260351
  38 N :   -0.273819
  39 C :    0.071419
  40 C :    0.102643
  41 N :   -0.243918
  42 C :   -0.215009
  43 S :    0.102610
  44 C :   -0.169108
  45 C :    0.045074
  46 C :   -0.207839
  47 C :   -0.136235
  48 C :   -0.105804
  49 C :   -0.133742
  50 C :   -0.202866
  51 H :    0.133939
  52 H :    0.124929
  53 H :    0.126918
  54 H :    0.127897
  55 H :    0.161161
  56 H :    0.154516
  57 H :    0.130470
  58 H :    0.126976
  59 H :    0.123846
  60 H :    0.161888
  61 H :    0.120890
  62 H :    0.179405
Sum of atomic charges:   -0.0000000

LOEWDIN ATOMIC CHARGES
----------------------
   0 C :   -0.156687
   1 C :   -0.114916
   2 C :   -0.086398
   3 C :   -0.143627
   4 C :   -0.130284
   5 C :   -0.138455
   6 C :   -0.046548
   7 C :   -0.143446
   8 N :    0.202121
   9 C :   -0.119117
  10 C :   -0.136411
  11 C :   -0.096146
  12 C :   -0.115455
  13 H :    0.156981
  14 H :    0.194259
  15 H :    0.148576
  16 H :    0.140593
  17 H :    0.144171
  18 H :    0.145770
  19 H :    0.144820
  20 S :    0.677513
  21 C :   -0.456022
  22 N :    0.077482
  23 N :    0.061906
  24 C :   -0.436643
  25 C :   -0.460483
  26 N :    0.072774
  27 N :    0.056731
  28 C :   -0.383509
  29 S :    0.715297
  30 C :   -0.091382
  31 C :   -0.140341
  32 C :   -0.132484
  33 C :   -0.135424
  34 C :   -0.082244
  35 C :   -0.118295
  36 C :   -0.112785
  37 C :   -0.117888
  38 N :    0.200133
  39 C :   -0.241277
  40 C :   -0.187822
  41 N :    0.220548
  42 C :   -0.331509
  43 S :    0.761846
  44 C :   -0.343957
  45 C :   -0.118307
  46 C :   -0.089346
  47 C :   -0.137457
  48 C :   -0.133911
  49 C :   -0.139181
  50 C :   -0.093117
  51 H :    0.153305
  52 H :    0.146075
  53 H :    0.145414
  54 H :    0.147192
  55 H :    0.158496
  56 H :    0.159287
  57 H :    0.147636
  58 H :    0.145315
  59 H :    0.146267
  60 H :    0.157383
  61 H :    0.145562
  62 H :    0.137420

  Mayer bond orders larger than 0.1
B(  0-C ,  1-C ) :   1.5339 B(  0-C ,  5-C ) :   1.3612 B(  0-C , 19-H ) :   0.9822
B(  1-C ,  2-C ) :   1.2601 B(  1-C , 16-H ) :   0.9298 B(  2-C ,  3-C ) :   1.3954
B(  2-C ,  6-C ) :   1.0822 B(  3-C ,  4-C ) :   1.3115 B(  3-C ,  8-N ) :   1.1251
B(  4-C ,  5-C ) :   1.4872 B(  4-C , 17-H ) :   0.9737 B(  5-C , 18-H ) :   0.9795
B(  6-C ,  7-C ) :   1.3411 B(  6-C , 12-C ) :   1.2037 B(  7-C ,  8-N ) :   1.1499
B(  7-C ,  9-C ) :   1.2936 B(  8-N , 14-H ) :   0.9115 B(  9-C , 10-C ) :   1.4591
B(  9-C , 61-H ) :   0.9700 B( 10-C , 11-C ) :   1.3781 B( 10-C , 15-H ) :   0.9820
B( 11-C , 12-C ) :   1.4728 B( 11-C , 13-H ) :   0.9615 B( 12-C , 28-C ) :   0.8735
B( 20-S , 21-C ) :   1.2597 B( 20-S , 24-C ) :   1.2591 B( 21-C , 22-N ) :   1.7129
B( 21-C , 25-C ) :   0.9773 B( 22-N , 23-N ) :   1.1019 B( 23-N , 24-C ) :   1.6888
B( 24-C , 44-C ) :   0.9767 B( 25-C , 26-N ) :   1.7347 B( 25-C , 29-S ) :   1.2730
B( 26-N , 27-N ) :   1.1267 B( 27-N , 28-C ) :   1.7062 B( 28-C , 29-S ) :   1.2445
B( 30-C , 31-C ) :   1.4671 B( 30-C , 35-C ) :   1.3277 B( 30-C , 60-H ) :   0.9623
B( 31-C , 32-C ) :   1.3825 B( 31-C , 59-H ) :   0.9851 B( 32-C , 33-C ) :   1.3863
B( 32-C , 58-H ) :   0.9805 B( 33-C , 34-C ) :   1.4394 B( 33-C , 57-H ) :   0.9828
B( 34-C , 35-C ) :   1.4048 B( 34-C , 56-H ) :   0.9672 B( 35-C , 36-C ) :   0.9046
B( 36-C , 37-C ) :   1.0695 B( 36-C , 41-N ) :   1.6775 B( 37-C , 38-N ) :   1.6320
B( 37-C , 45-C ) :   0.9091 B( 38-N , 39-C ) :   1.2688 B( 39-C , 40-C ) :   1.2061
B( 39-C , 42-C ) :   1.5540 B( 40-C , 41-N ) :   1.2848 B( 40-C , 44-C ) :   1.3416
B( 42-C , 43-S ) :   1.3357 B( 42-C , 62-H ) :   0.9168 B( 43-S , 44-C ) :   1.3274
B( 45-C , 46-C ) :   1.3353 B( 45-C , 50-C ) :   1.4053 B( 46-C , 47-C ) :   1.4553
B( 46-C , 55-H ) :   0.9690 B( 47-C , 48-C ) :   1.3828 B( 47-C , 54-H ) :   0.9825
B( 48-C , 49-C ) :   1.3882 B( 48-C , 53-H ) :   0.9815 B( 49-C , 50-C ) :   1.4341
B( 49-C , 52-H ) :   0.9873 B( 50-C , 51-H ) :   0.9730

Dispersion correction           -0.031757401
FINAL SINGLE POINT ENERGY     -2884.967696993273

DIPOLE MOMENT
-------------
                                X             Y             Z
Electronic contribution:     18.68740       0.60470       8.31315
Nuclear contribution   :    -17.88023       0.74353      -6.81198
                        -----------------------------------------
Total Dipole Moment    :      0.80717       1.34823       1.50117
                        -----------------------------------------
Magnitude (a.u.)       :      2.17319
Magnitude (Debye)      :      5.52381

                             ****ORCA TERMINATED NORMALLY****
TOTAL RUN TIME: 0 days 0 hours 21 minutes 52 seconds 995 msec
