                         Program Version 4.0.0 -  RELEASE  -
|  1> #
|  2> !wB97X-D3 def2-TZVP def2/J RIJCOSX Grid5 FinalGrid6 TightSCF
|  3> %pal
|  4>  nprocs 24
|  5> end
|  6> %tddft
|  7>   Mode sTDDFT
|  8>   nroots 2
|  9>   Ethresh 10.0
| 10>   maxcore 5000
| 11>   triplets true
| 12> end
| 13> * xyz 0 1
| 14> C 8.79918448 1.84458065 0.22833327
| 15> C 7.58195060 1.19214980 0.04471876
| 16> C 7.32448374 0.00811747 0.76003589
| 17> C 8.30482650 -0.45339940 1.68360351
| 18> C 9.53525017 0.19657475 1.86358827
| 19> C 9.77030744 1.34788002 1.11531283
| 20> C 6.19601309 -0.90236546 0.86508350
| 21> C 6.53774033 -1.83927239 1.88192988
| 22> N 7.81678620 -1.57115002 2.33743148
| 23> C 5.65577558 -2.83553649 2.32815146
| 24> C 4.39007356 -2.87483806 1.74495887
| 25> C 4.03361806 -1.98061766 0.72727651
| 26> C 4.92271597 -1.00114194 0.24293761
| 27> H 3.05017911 -2.05973617 0.27256530
| 28> H 8.29419436 -2.07728005 3.07310173
| 29> H 3.67112457 -3.62101810 2.07213610
| 30> H 6.84072854 1.61553034 -0.62576568
| 31> H 10.27171761 -0.17818745 2.56944681
| 32> H 10.71125865 1.87937041 1.22981651
| 33> H 9.00274775 2.75938274 -0.32150425
| 34> O 0.61913062 0.68701953 -1.77771039
| 35> C 1.63357083 1.04526109 -2.59667556
| 36> C 1.12080813 1.72249609 -3.69527384
| 37> C -0.28392069 1.76624668 -3.51261501
| 38> C -0.54545639 1.11419021 -2.31486345
| 39> C 2.98158152 0.68938508 -2.22390335
| 40> C 4.20525011 0.90359345 -2.84392522
| 41> C 5.18459366 0.33261124 -1.99246915
| 42> C 4.50418374 -0.19214259 -0.90286818
| 43> O 3.17828476 0.01850826 -1.06782602
| 44> H 6.24510343 0.26999939 -2.18518151
| 45> H 4.37244186 1.40249240 -3.78754233
| 46> H -1.00781388 2.21862028 -4.17493319
| 47> H 1.68483880 2.13189611 -4.52086937
| 48> C -4.21169921 0.98589947 -1.43829171
| 49> C -4.18979875 0.30016592 -0.20508791
| 50> C -2.94616383 -0.11169510 0.31950061
| 51> C -1.76887176 0.15100568 -0.36907362
| 52> C -1.78351980 0.83917218 -1.60069826
| 53> C -3.02948671 1.25148296 -2.11764635
| 54> N -5.39422565 0.03011671 0.49312571
| 55> C -6.47509102 0.94933940 0.42821700
| 56> C -7.80705342 0.48869484 0.44502815
| 57> C -8.86212733 1.39618473 0.38542207
| 58> C -8.61492271 2.76857153 0.29960351
| 59> C -7.29646068 3.23024786 0.27863912
| 60> C -6.23133270 2.33517283 0.34651583
| 61> C -5.52092742 -1.15990309 1.25823767
| 62> C -4.89613367 -2.35095775 0.83679279
| 63> C -5.02116077 -3.51286498 1.59480920
| 64> C -5.77190022 -3.51514276 2.77307133
| 65> C -6.39734543 -2.33844731 3.19272990
| 66> C -6.27381316 -1.16670741 2.44973439
| 67> H -4.32176305 -2.36143244 -0.08522927
| 68> H -4.53728041 -4.42585696 1.25753329
| 69> H -6.97778717 -2.33009941 4.11169776
| 70> H -6.75268462 -0.25293809 2.79004506
| 71> H -8.00806844 -0.57752329 0.49871452
| 72> H -9.88491278 1.02837312 0.39575170
| 73> H -9.44149538 3.47129208 0.24988543
| 74> H -7.09553912 4.29682101 0.21946273
| 75> H -5.20935986 2.70354396 0.34364044
| 76> H -2.91021335 -0.63110894 1.27293083
| 77> H -0.81833884 -0.16720102 0.05009201
| 78> H -3.06722888 1.77610698 -3.06904994
| 79> H -5.16082561 1.30109292 -1.86222294
| 80> H 5.94295743 -3.53574539 3.10738326
| 81> H -5.86869848 -4.42488049 3.35833388
| 82> *
| 83> $new_job
| 84> #
| 85> !wB97X-D3 def2-TZVP def2/J RIJCOSX Grid5 FinalGrid6 TightSCF
| 86> %pal
| 87>  nprocs 24
| 88> end
| 89> %elprop
| 90>    dipole     true
| 91>    quadrupole true
| 92> end
| 93> %tddft
| 94>   Mode sTDDFT
| 95>   nroots 2
| 96>   Ethresh 10.0
| 97>   maxcore 5000
| 98> end
| 99> * xyz 0 1
|100> C 8.79918448 1.84458065 0.22833327
|101> C 7.58195060 1.19214980 0.04471876
|102> C 7.32448374 0.00811747 0.76003589
|103> C 8.30482650 -0.45339940 1.68360351
|104> C 9.53525017 0.19657475 1.86358827
|105> C 9.77030744 1.34788002 1.11531283
|106> C 6.19601309 -0.90236546 0.86508350
|107> C 6.53774033 -1.83927239 1.88192988
|108> N 7.81678620 -1.57115002 2.33743148
|109> C 5.65577558 -2.83553649 2.32815146
|110> C 4.39007356 -2.87483806 1.74495887
|111> C 4.03361806 -1.98061766 0.72727651
|112> C 4.92271597 -1.00114194 0.24293761
|113> H 3.05017911 -2.05973617 0.27256530
|114> H 8.29419436 -2.07728005 3.07310173
|115> H 3.67112457 -3.62101810 2.07213610
|116> H 6.84072854 1.61553034 -0.62576568
|117> H 10.27171761 -0.17818745 2.56944681
|118> H 10.71125865 1.87937041 1.22981651
|119> H 9.00274775 2.75938274 -0.32150425
|120> O 0.61913062 0.68701953 -1.77771039
|121> C 1.63357083 1.04526109 -2.59667556
|122> C 1.12080813 1.72249609 -3.69527384
|123> C -0.28392069 1.76624668 -3.51261501
|124> C -0.54545639 1.11419021 -2.31486345
|125> C 2.98158152 0.68938508 -2.22390335
|126> C 4.20525011 0.90359345 -2.84392522
|127> C 5.18459366 0.33261124 -1.99246915
|128> C 4.50418374 -0.19214259 -0.90286818
|129> O 3.17828476 0.01850826 -1.06782602
|130> H 6.24510343 0.26999939 -2.18518151
|131> H 4.37244186 1.40249240 -3.78754233
|132> H -1.00781388 2.21862028 -4.17493319
|133> H 1.68483880 2.13189611 -4.52086937
|134> C -4.21169921 0.98589947 -1.43829171
|135> C -4.18979875 0.30016592 -0.20508791
|136> C -2.94616383 -0.11169510 0.31950061
|137> C -1.76887176 0.15100568 -0.36907362
|138> C -1.78351980 0.83917218 -1.60069826
|139> C -3.02948671 1.25148296 -2.11764635
|140> N -5.39422565 0.03011671 0.49312571
|141> C -6.47509102 0.94933940 0.42821700
|142> C -7.80705342 0.48869484 0.44502815
|143> C -8.86212733 1.39618473 0.38542207
|144> C -8.61492271 2.76857153 0.29960351
|145> C -7.29646068 3.23024786 0.27863912
|146> C -6.23133270 2.33517283 0.34651583
|147> C -5.52092742 -1.15990309 1.25823767
|148> C -4.89613367 -2.35095775 0.83679279
|149> C -5.02116077 -3.51286498 1.59480920
|150> C -5.77190022 -3.51514276 2.77307133
|151> C -6.39734543 -2.33844731 3.19272990
|152> C -6.27381316 -1.16670741 2.44973439
|153> H -4.32176305 -2.36143244 -0.08522927
|154> H -4.53728041 -4.42585696 1.25753329
|155> H -6.97778717 -2.33009941 4.11169776
|156> H -6.75268462 -0.25293809 2.79004506
|157> H -8.00806844 -0.57752329 0.49871452
|158> H -9.88491278 1.02837312 0.39575170
|159> H -9.44149538 3.47129208 0.24988543
|160> H -7.09553912 4.29682101 0.21946273
|161> H -5.20935986 2.70354396 0.34364044
|162> H -2.91021335 -0.63110894 1.27293083
|163> H -0.81833884 -0.16720102 0.05009201
|164> H -3.06722888 1.77610698 -3.06904994
|165> H -5.16082561 1.30109292 -1.86222294
|166> H 5.94295743 -3.53574539 3.10738326
|167> H -5.86869848 -4.42488049 3.35833388
|168> *
|169>
|170>                          ****END OF INPUT****
 Total Charge           Charge          ....    0
 Multiplicity           Mult            ....    1
 Number of Electrons    NEL             ....  284
Dispersion correction           -0.032445726
FINAL SINGLE POINT ENERGY     -1723.758765096694

CARTESIAN COORDINATES (ANGSTROEM)
---------------------------------
  C      8.799184    1.844581    0.228333
  C      7.581951    1.192150    0.044719
  C      7.324484    0.008117    0.760036
  C      8.304827   -0.453399    1.683604
  C      9.535250    0.196575    1.863588
  C      9.770307    1.347880    1.115313
  C      6.196013   -0.902365    0.865084
  C      6.537740   -1.839272    1.881930
  N      7.816786   -1.571150    2.337431
  C      5.655776   -2.835536    2.328151
  C      4.390074   -2.874838    1.744959
  C      4.033618   -1.980618    0.727277
  C      4.922716   -1.001142    0.242938
  H      3.050179   -2.059736    0.272565
  H      8.294194   -2.077280    3.073102
  H      3.671125   -3.621018    2.072136
  H      6.840729    1.615530   -0.625766
  H     10.271718   -0.178187    2.569447
  H     10.711259    1.879370    1.229817
  H      9.002748    2.759383   -0.321504
  O      0.619131    0.687020   -1.777710
  C      1.633571    1.045261   -2.596676
  C      1.120808    1.722496   -3.695274
  C     -0.283921    1.766247   -3.512615
  C     -0.545456    1.114190   -2.314863
  C      2.981582    0.689385   -2.223903
  C      4.205250    0.903593   -2.843925
  C      5.184594    0.332611   -1.992469
  C      4.504184   -0.192143   -0.902868
  O      3.178285    0.018508   -1.067826
  H      6.245103    0.269999   -2.185182
  H      4.372442    1.402492   -3.787542
  H     -1.007814    2.218620   -4.174933
  H      1.684839    2.131896   -4.520869
  C     -4.211699    0.985899   -1.438292
  C     -4.189799    0.300166   -0.205088
  C     -2.946164   -0.111695    0.319501
  C     -1.768872    0.151006   -0.369074
  C     -1.783520    0.839172   -1.600698
  C     -3.029487    1.251483   -2.117646
  N     -5.394226    0.030117    0.493126
  C     -6.475091    0.949339    0.428217
  C     -7.807053    0.488695    0.445028
  C     -8.862127    1.396185    0.385422
  C     -8.614923    2.768572    0.299604
  C     -7.296461    3.230248    0.278639
  C     -6.231333    2.335173    0.346516
  C     -5.520927   -1.159903    1.258238
  C     -4.896134   -2.350958    0.836793
  C     -5.021161   -3.512865    1.594809
  C     -5.771900   -3.515143    2.773071
  C     -6.397345   -2.338447    3.192730
  C     -6.273813   -1.166707    2.449734
  H     -4.321763   -2.361432   -0.085229
  H     -4.537280   -4.425857    1.257533
  H     -6.977787   -2.330099    4.111698
  H     -6.752685   -0.252938    2.790045
  H     -8.008068   -0.577523    0.498715
  H     -9.884913    1.028373    0.395752
  H     -9.441495    3.471292    0.249885
  H     -7.095539    4.296821    0.219463
  H     -5.209360    2.703544    0.343640
  H     -2.910213   -0.631109    1.272931
  H     -0.818339   -0.167201    0.050092
  H     -3.067229    1.776107   -3.069050
  H     -5.160826    1.301093   -1.862223
  H      5.942957   -3.535745    3.107383
  H     -5.868698   -4.424880    3.358334

 Multiplicity           Mult            ....    1
 Number of Electrons    NEL             ....  284
 Basis Dimension        Dim             .... 1458

ORBITAL ENERGIES
----------------

  NO   OCC          E(Eh)            E(eV)
   0   2.0000     -19.306876      -525.3668
   1   2.0000     -19.306226      -525.3491
   2   2.0000     -14.465941      -393.6383
   3   2.0000     -14.461827      -393.5263
   4   2.0000     -10.347014      -281.5566
   5   2.0000     -10.346391      -281.5396
   6   2.0000     -10.341029      -281.3937
   7   2.0000     -10.340583      -281.3816
   8   2.0000     -10.332071      -281.1499
   9   2.0000     -10.331315      -281.1294
  10   2.0000     -10.331068      -281.1226
  11   2.0000     -10.325994      -280.9846
  12   2.0000     -10.324339      -280.9395
  13   2.0000     -10.305553      -280.4284
  14   2.0000     -10.299143      -280.2539
  15   2.0000     -10.292842      -280.0825
  16   2.0000     -10.291027      -280.0331
  17   2.0000     -10.288731      -279.9706
  18   2.0000     -10.287072      -279.9255
  19   2.0000     -10.286184      -279.9013
  20   2.0000     -10.286151      -279.9004
  21   2.0000     -10.286003      -279.8964
  22   2.0000     -10.285874      -279.8929
  23   2.0000     -10.285835      -279.8918
  24   2.0000     -10.285799      -279.8908
  25   2.0000     -10.285377      -279.8793
  26   2.0000     -10.284777      -279.8630
  27   2.0000     -10.284590      -279.8579
  28   2.0000     -10.284285      -279.8496
  29   2.0000     -10.283665      -279.8328
  30   2.0000     -10.283479      -279.8277
  31   2.0000     -10.283298      -279.8228
  32   2.0000     -10.283274      -279.8221
  33   2.0000     -10.282976      -279.8140
  34   2.0000     -10.282950      -279.8133
  35   2.0000     -10.282881      -279.8114
  36   2.0000     -10.281732      -279.7801
  37   2.0000     -10.281377      -279.7705
  38   2.0000     -10.280014      -279.7334
  39   2.0000     -10.279666      -279.7239
  40   2.0000     -10.276661      -279.6422
  41   2.0000     -10.274486      -279.5830
  42   2.0000      -1.248690       -33.9786
  43   2.0000      -1.235972       -33.6325
  44   2.0000      -1.102671       -30.0052
  45   2.0000      -1.091328       -29.6966
  46   2.0000      -0.983170       -26.7534
  47   2.0000      -0.977698       -26.6045
  48   2.0000      -0.972464       -26.4621
  49   2.0000      -0.964257       -26.2388
  50   2.0000      -0.960906       -26.1476
  51   2.0000      -0.929314       -25.2879
  52   2.0000      -0.920224       -25.0406
  53   2.0000      -0.916304       -24.9339
  54   2.0000      -0.899165       -24.4675
  55   2.0000      -0.891321       -24.2541
  56   2.0000      -0.879991       -23.9458
  57   2.0000      -0.872168       -23.7329
  58   2.0000      -0.864236       -23.5170
  59   2.0000      -0.863345       -23.4928
  60   2.0000      -0.862156       -23.4605
  61   2.0000      -0.850682       -23.1482
  62   2.0000      -0.837168       -22.7805
  63   2.0000      -0.832527       -22.6542
  64   2.0000      -0.808470       -21.9996
  65   2.0000      -0.764385       -20.8000
  66   2.0000      -0.747312       -20.3354
  67   2.0000      -0.745995       -20.2995
  68   2.0000      -0.734318       -19.9818
  69   2.0000      -0.721606       -19.6359
  70   2.0000      -0.721414       -19.6307
  71   2.0000      -0.715069       -19.4580
  72   2.0000      -0.712631       -19.3917
  73   2.0000      -0.708355       -19.2753
  74   2.0000      -0.704018       -19.1573
  75   2.0000      -0.691473       -18.8159
  76   2.0000      -0.680682       -18.5223
  77   2.0000      -0.674254       -18.3474
  78   2.0000      -0.661588       -18.0027
  79   2.0000      -0.660559       -17.9747
  80   2.0000      -0.644878       -17.5480
  81   2.0000      -0.641446       -17.4546
  82   2.0000      -0.635269       -17.2865
  83   2.0000      -0.623138       -16.9565
  84   2.0000      -0.609751       -16.5922
  85   2.0000      -0.608744       -16.5648
  86   2.0000      -0.593336       -16.1455
  87   2.0000      -0.588158       -16.0046
  88   2.0000      -0.585334       -15.9277
  89   2.0000      -0.570343       -15.5198
  90   2.0000      -0.568358       -15.4658
  91   2.0000      -0.563337       -15.3292
  92   2.0000      -0.557557       -15.1719
  93   2.0000      -0.556515       -15.1436
  94   2.0000      -0.555324       -15.1111
  95   2.0000      -0.547226       -14.8908
  96   2.0000      -0.543494       -14.7892
  97   2.0000      -0.542713       -14.7680
  98   2.0000      -0.536733       -14.6053
  99   2.0000      -0.533194       -14.5090
 100   2.0000      -0.529542       -14.4096
 101   2.0000      -0.527480       -14.3535
 102   2.0000      -0.527117       -14.3436
 103   2.0000      -0.524431       -14.2705
 104   2.0000      -0.522792       -14.2259
 105   2.0000      -0.519044       -14.1239
 106   2.0000      -0.514724       -14.0063
 107   2.0000      -0.505301       -13.7499
 108   2.0000      -0.502993       -13.6871
 109   2.0000      -0.501281       -13.6405
 110   2.0000      -0.487503       -13.2656
 111   2.0000      -0.482480       -13.1289
 112   2.0000      -0.480085       -13.0638
 113   2.0000      -0.479016       -13.0347
 114   2.0000      -0.476959       -12.9787
 115   2.0000      -0.469052       -12.7635
 116   2.0000      -0.463950       -12.6247
 117   2.0000      -0.462827       -12.5942
 118   2.0000      -0.457951       -12.4615
 119   2.0000      -0.457123       -12.4390
 120   2.0000      -0.452786       -12.3209
 121   2.0000      -0.447866       -12.1871
 122   2.0000      -0.439765       -11.9666
 123   2.0000      -0.437461       -11.9039
 124   2.0000      -0.437043       -11.8925
 125   2.0000      -0.435140       -11.8408
 126   2.0000      -0.430619       -11.7177
 127   2.0000      -0.420930       -11.4541
 128   2.0000      -0.390652       -10.6302
 129   2.0000      -0.383458       -10.4344
 130   2.0000      -0.380731       -10.3602
 131   2.0000      -0.372542       -10.1374
 132   2.0000      -0.355391        -9.6707
 133   2.0000      -0.353090        -9.6081
 134   2.0000      -0.349623        -9.5137
 135   2.0000      -0.340571        -9.2674
 136   2.0000      -0.340344        -9.2612
 137   2.0000      -0.328443        -8.9374
 138   2.0000      -0.300340        -8.1727
 139   2.0000      -0.291876        -7.9423
 140   2.0000      -0.272744        -7.4217
 141   2.0000      -0.244689        -6.6583
 142   0.0000       0.003831         0.1043
 143   0.0000       0.026507         0.7213
 144   0.0000       0.042977         1.1695
 145   0.0000       0.045820         1.2468
 146   0.0000       0.053571         1.4578

MULLIKEN ATOMIC CHARGES
-----------------------
   0 C :   -0.153112
   1 C :   -0.242434
   2 C :   -0.037026
   3 C :    0.170637
   4 C :   -0.227121
   5 C :   -0.092672
   6 C :   -0.007602
   7 C :    0.175556
   8 N :   -0.301953
   9 C :   -0.248180
  10 C :   -0.061503
  11 C :   -0.297333
  12 C :    0.150774
  13 H :    0.135341
  14 H :    0.235287
  15 H :    0.122082
  16 H :    0.193882
  17 H :    0.114424
  18 H :    0.121450
  19 H :    0.117642
  20 O :   -0.265609
  21 C :    0.236059
  22 C :   -0.252572
  23 C :   -0.211414
  24 C :    0.350712
  25 C :    0.212202
  26 C :   -0.210268
  27 C :   -0.322531
  28 C :    0.273791
  29 O :   -0.268863
  30 H :    0.194402
  31 H :    0.134279
  32 H :    0.137347
  33 H :    0.133696
  34 C :   -0.292779
  35 C :    0.173785
  36 C :   -0.259339
  37 C :   -0.200572
  38 C :   -0.004043
  39 C :   -0.151386
  40 N :    0.058151
  41 C :    0.219567
  42 C :   -0.313004
  43 C :   -0.067948
  44 C :   -0.167667
  45 C :   -0.067105
  46 C :   -0.316873
  47 C :    0.213315
  48 C :   -0.307587
  49 C :   -0.071070
  50 C :   -0.167489
  51 C :   -0.066905
  52 C :   -0.312395
  53 H :    0.161233
  54 H :    0.126120
  55 H :    0.125105
  56 H :    0.161342
  57 H :    0.160509
  58 H :    0.125963
  59 H :    0.121634
  60 H :    0.125649
  61 H :    0.161920
  62 H :    0.160224
  63 H :    0.150764
  64 H :    0.116063
  65 H :    0.160084
  66 H :    0.113667
  67 H :    0.121696
Sum of atomic charges:   -0.0000000

LOEWDIN ATOMIC CHARGES
----------------------
   0 C :   -0.161083
   1 C :   -0.107738
   2 C :   -0.079909
   3 C :   -0.145440
   4 C :   -0.133296
   5 C :   -0.143540
   6 C :   -0.039961
   7 C :   -0.145097
   8 N :    0.199857
   9 C :   -0.132037
  10 C :   -0.142055
  11 C :   -0.112593
  12 C :   -0.080420
  13 H :    0.151359
  14 H :    0.192780
  15 H :    0.145987
  16 H :    0.151893
  17 H :    0.142920
  18 H :    0.144293
  19 H :    0.143112
  20 O :    0.400403
  21 C :   -0.215291
  22 C :   -0.137683
  23 C :   -0.144984
  24 C :   -0.198361
  25 C :   -0.214341
  26 C :   -0.139954
  27 C :   -0.145458
  28 C :   -0.192123
  29 O :    0.403409
  30 H :    0.148774
  31 H :    0.142876
  32 H :    0.141552
  33 H :    0.142958
  34 C :   -0.114738
  35 C :   -0.162351
  36 C :   -0.113212
  37 C :   -0.093700
  38 C :   -0.126537
  39 C :   -0.093204
  40 N :    0.276342
  41 C :   -0.163933
  42 C :   -0.116690
  43 C :   -0.141825
  44 C :   -0.154470
  45 C :   -0.141747
  46 C :   -0.117115
  47 C :   -0.163910
  48 C :   -0.116795
  49 C :   -0.141639
  50 C :   -0.154401
  51 C :   -0.141741
  52 C :   -0.116721
  53 H :    0.156381
  54 H :    0.145998
  55 H :    0.145834
  56 H :    0.156346
  57 H :    0.156310
  58 H :    0.145844
  59 H :    0.142839
  60 H :    0.145917
  61 H :    0.156427
  62 H :    0.157986
  63 H :    0.154812
  64 H :    0.149308
  65 H :    0.157771
  66 H :    0.142968
  67 H :    0.142840

  Mayer bond orders larger than 0.1
B(  0-C ,  1-C ) :   1.5356 B(  0-C ,  5-C ) :   1.3642 B(  0-C , 19-H ) :   0.9839
B(  1-C ,  2-C ) :   1.2766 B(  1-C , 16-H ) :   0.9273 B(  2-C ,  3-C ) :   1.3759
B(  2-C ,  6-C ) :   1.0623 B(  3-C ,  4-C ) :   1.3081 B(  3-C ,  8-N ) :   1.1231
B(  4-C ,  5-C ) :   1.4852 B(  4-C , 17-H ) :   0.9766 B(  5-C , 18-H ) :   0.9804
B(  6-C ,  7-C ) :   1.3351 B(  6-C , 12-C ) :   1.2442 B(  7-C ,  8-N ) :   1.1462
B(  7-C ,  9-C ) :   1.2830 B(  8-N , 14-H ) :   0.9131 B(  9-C , 10-C ) :   1.4520
B(  9-C , 66-H ) :   0.9815 B( 10-C , 11-C ) :   1.3861 B( 10-C , 15-H ) :   0.9858
B( 11-C , 12-C ) :   1.4559 B( 11-C , 13-H ) :   0.9659 B( 12-C , 28-C ) :   0.9174
B( 20-O , 21-C ) :   1.0927 B( 20-O , 24-C ) :   1.0747 B( 21-C , 22-C ) :   1.5144
B( 21-C , 25-C ) :   1.0290 B( 22-C , 23-C ) :   1.3145 B( 22-C , 33-H ) :   0.9843
B( 23-C , 24-C ) :   1.5518 B( 23-C , 32-H ) :   0.9645 B( 24-C , 38-C ) :   0.9626
B( 25-C , 26-C ) :   1.5207 B( 25-C , 29-O ) :   1.0933 B( 26-C , 27-C ) :   1.3105
B( 26-C , 31-H ) :   0.9831 B( 27-C , 28-C ) :   1.5485 B( 27-C , 30-H ) :   0.9547
B( 28-C , 29-O ) :   1.0926 B( 34-C , 35-C ) :   1.3362 B( 34-C , 39-C ) :   1.4980
B( 34-C , 65-H ) :   0.9758 B( 35-C , 36-C ) :   1.3452 B( 35-C , 40-N ) :   1.0491
B( 36-C , 37-C ) :   1.4555 B( 36-C , 62-H ) :   0.9802 B( 37-C , 38-C ) :   1.4104
B( 37-C , 63-H ) :   0.9597 B( 38-C , 39-C ) :   1.3523 B( 39-C , 64-H ) :   0.9678
B( 40-N , 41-C ) :   1.0269 B( 40-N , 47-C ) :   1.0287 B( 41-C , 42-C ) :   1.3506
B( 41-C , 46-C ) :   1.3424 B( 42-C , 43-C ) :   1.4341 B( 42-C , 57-H ) :   0.9705
B( 43-C , 44-C ) :   1.3981 B( 43-C , 58-H ) :   0.9785 B( 44-C , 45-C ) :   1.3982
B( 44-C , 59-H ) :   0.9834 B( 45-C , 46-C ) :   1.4332 B( 45-C , 60-H ) :   0.9790
B( 46-C , 61-H ) :   0.9701 B( 47-C , 48-C ) :   1.3473 B( 47-C , 52-C ) :   1.3490
B( 48-C , 49-C ) :   1.4352 B( 48-C , 53-H ) :   0.9697 B( 49-C , 50-C ) :   1.3978
B( 49-C , 54-H ) :   0.9793 B( 50-C , 51-C ) :   1.3960 B( 50-C , 67-H ) :   0.9837
B( 51-C , 52-C ) :   1.4310 B( 51-C , 55-H ) :   0.9809 B( 52-C , 56-H ) :   0.9707

Dispersion correction           -0.032445726
FINAL SINGLE POINT ENERGY     -1723.758764951215

DIPOLE MOMENT
-------------
                                X             Y             Z
Electronic contribution:     16.82018      -0.57021      -4.26942
Nuclear contribution   :    -16.56352       0.31698       4.57588
                        -----------------------------------------
Total Dipole Moment    :      0.25666      -0.25323       0.30647
                        -----------------------------------------
Magnitude (a.u.)       :      0.47320
Magnitude (Debye)      :      1.20278

                             ****ORCA TERMINATED NORMALLY****
TOTAL RUN TIME: 0 days 0 hours 19 minutes 14 seconds 825 msec
