                         Program Version 4.0.0 -  RELEASE  -
|  1> #
|  2> !wB97X-D3 def2-TZVP def2/J RIJCOSX Grid5 FinalGrid6 TightSCF
|  3> %pal
|  4>  nprocs 24
|  5> end
|  6> %tddft
|  7>   Mode sTDDFT
|  8>   nroots 2
|  9>   Ethresh 10.0
| 10>   maxcore 5000
| 11>   triplets true
| 12> end
| 13> * xyz 0 1
| 14> C -4.81419023 2.69092429 -1.21561744
| 15> C -3.93824956 1.69530028 -0.79105446
| 16> C -4.45414863 0.43492697 -0.43288035
| 17> C -5.85736647 0.22310211 -0.54270992
| 18> C -6.74281507 1.22664046 -0.96472903
| 19> C -6.19955553 2.46500339 -1.29603028
| 20> C -3.88048793 -0.82441390 0.01665361
| 21> C -4.97131672 -1.73693776 0.12771751
| 22> N -6.14644484 -1.08418936 -0.19258733
| 23> C -4.81005677 -3.08283864 0.48907211
| 24> C -3.51374788 -3.53015655 0.73338189
| 25> C -2.42217447 -2.65688280 0.63986099
| 26> C -2.57223109 -1.29822278 0.30417619
| 27> H -1.42656250 -3.03280488 0.85962557
| 28> H -7.06660636 -1.50684068 -0.20450410
| 29> H -3.34332602 -4.56701439 1.00828811
| 30> H -2.87363658 1.90013696 -0.74678643
| 31> H -7.81094488 1.04001172 -1.03586892
| 32> H -6.85381880 3.26657503 -1.62803600
| 33> H -4.42009387 3.66495245 -1.49163432
| 34> C 4.27678606 0.73402098 -0.07866059
| 35> N 3.88060854 1.98511955 0.20102339
| 36> O 2.53272798 1.94800735 0.34015201
| 37> C 2.07984285 0.69517703 0.15224981
| 38> C 3.14649894 -0.13568325 -0.12073181
| 39> C 0.64874132 0.44679262 0.25963343
| 40> N -0.22511219 1.42408827 0.54265946
| 41> O -1.45522582 0.84776783 0.56179788
| 42> C -1.36645108 -0.46317187 0.29333288
| 43> C -0.03641520 -0.79138170 0.09868708
| 44> H 0.38203198 -1.75708228 -0.14448271
| 45> H 3.13416423 -1.19697012 -0.32026224
| 46> N 6.54783848 2.64396652 0.03500957
| 47> C 6.75174447 1.36830673 -0.22776189
| 48> C 8.13424954 0.92577086 -0.46140403
| 49> N 9.09782915 1.83113614 -0.39525326
| 50> S 8.25100791 3.46050607 0.00410850
| 51> C 8.34897028 -0.46627884 -0.74739900
| 52> C 7.26198704 -1.30075271 -0.78684775
| 53> N 5.95730153 -0.90125352 -0.56976457
| 54> C 5.68159981 0.37033304 -0.29984088
| 55> H 7.39733338 -2.36471167 -1.00234369
| 56> H -5.66314256 -3.75100842 0.56521045
| 57> H 9.35295759 -0.83997052 -0.92694941
| 58> *
| 59> $new_job
| 60> #
| 61> !wB97X-D3 def2-TZVP def2/J RIJCOSX Grid5 FinalGrid6 TightSCF
| 62> %pal
| 63>  nprocs 24
| 64> end
| 65> %elprop
| 66>    dipole     true
| 67>    quadrupole true
| 68> end
| 69> %tddft
| 70>   Mode sTDDFT
| 71>   nroots 2
| 72>   Ethresh 10.0
| 73>   maxcore 5000
| 74> end
| 75> * xyz 0 1
| 76> C -4.81419023 2.69092429 -1.21561744
| 77> C -3.93824956 1.69530028 -0.79105446
| 78> C -4.45414863 0.43492697 -0.43288035
| 79> C -5.85736647 0.22310211 -0.54270992
| 80> C -6.74281507 1.22664046 -0.96472903
| 81> C -6.19955553 2.46500339 -1.29603028
| 82> C -3.88048793 -0.82441390 0.01665361
| 83> C -4.97131672 -1.73693776 0.12771751
| 84> N -6.14644484 -1.08418936 -0.19258733
| 85> C -4.81005677 -3.08283864 0.48907211
| 86> C -3.51374788 -3.53015655 0.73338189
| 87> C -2.42217447 -2.65688280 0.63986099
| 88> C -2.57223109 -1.29822278 0.30417619
| 89> H -1.42656250 -3.03280488 0.85962557
| 90> H -7.06660636 -1.50684068 -0.20450410
| 91> H -3.34332602 -4.56701439 1.00828811
| 92> H -2.87363658 1.90013696 -0.74678643
| 93> H -7.81094488 1.04001172 -1.03586892
| 94> H -6.85381880 3.26657503 -1.62803600
| 95> H -4.42009387 3.66495245 -1.49163432
| 96> C 4.27678606 0.73402098 -0.07866059
| 97> N 3.88060854 1.98511955 0.20102339
| 98> O 2.53272798 1.94800735 0.34015201
| 99> C 2.07984285 0.69517703 0.15224981
|100> C 3.14649894 -0.13568325 -0.12073181
|101> C 0.64874132 0.44679262 0.25963343
|102> N -0.22511219 1.42408827 0.54265946
|103> O -1.45522582 0.84776783 0.56179788
|104> C -1.36645108 -0.46317187 0.29333288
|105> C -0.03641520 -0.79138170 0.09868708
|106> H 0.38203198 -1.75708228 -0.14448271
|107> H 3.13416423 -1.19697012 -0.32026224
|108> N 6.54783848 2.64396652 0.03500957
|109> C 6.75174447 1.36830673 -0.22776189
|110> C 8.13424954 0.92577086 -0.46140403
|111> N 9.09782915 1.83113614 -0.39525326
|112> S 8.25100791 3.46050607 0.00410850
|113> C 8.34897028 -0.46627884 -0.74739900
|114> C 7.26198704 -1.30075271 -0.78684775
|115> N 5.95730153 -0.90125352 -0.56976457
|116> C 5.68159981 0.37033304 -0.29984088
|117> H 7.39733338 -2.36471167 -1.00234369
|118> H -5.66314256 -3.75100842 0.56521045
|119> H 9.35295759 -0.83997052 -0.92694941
|120> *
|121>
|122>                          ****END OF INPUT****
 Total Charge           Charge          ....    0
 Multiplicity           Mult            ....    1
 Number of Electrons    NEL             ....  224
Dispersion correction           -0.019335854
FINAL SINGLE POINT ENERGY     -1760.773519252852

CARTESIAN COORDINATES (ANGSTROEM)
---------------------------------
  C     -4.814190    2.690924   -1.215617
  C     -3.938250    1.695300   -0.791054
  C     -4.454149    0.434927   -0.432880
  C     -5.857366    0.223102   -0.542710
  C     -6.742815    1.226640   -0.964729
  C     -6.199556    2.465003   -1.296030
  C     -3.880488   -0.824414    0.016654
  C     -4.971317   -1.736938    0.127718
  N     -6.146445   -1.084189   -0.192587
  C     -4.810057   -3.082839    0.489072
  C     -3.513748   -3.530157    0.733382
  C     -2.422174   -2.656883    0.639861
  C     -2.572231   -1.298223    0.304176
  H     -1.426562   -3.032805    0.859626
  H     -7.066606   -1.506841   -0.204504
  H     -3.343326   -4.567014    1.008288
  H     -2.873637    1.900137   -0.746786
  H     -7.810945    1.040012   -1.035869
  H     -6.853819    3.266575   -1.628036
  H     -4.420094    3.664952   -1.491634
  C      4.276786    0.734021   -0.078661
  N      3.880609    1.985120    0.201023
  O      2.532728    1.948007    0.340152
  C      2.079843    0.695177    0.152250
  C      3.146499   -0.135683   -0.120732
  C      0.648741    0.446793    0.259633
  N     -0.225112    1.424088    0.542659
  O     -1.455226    0.847768    0.561798
  C     -1.366451   -0.463172    0.293333
  C     -0.036415   -0.791382    0.098687
  H      0.382032   -1.757082   -0.144483
  H      3.134164   -1.196970   -0.320262
  N      6.547838    2.643967    0.035010
  C      6.751744    1.368307   -0.227762
  C      8.134250    0.925771   -0.461404
  N      9.097829    1.831136   -0.395253
  S      8.251008    3.460506    0.004109
  C      8.348970   -0.466279   -0.747399
  C      7.261987   -1.300753   -0.786848
  N      5.957302   -0.901254   -0.569765
  C      5.681600    0.370333   -0.299841
  H      7.397333   -2.364712   -1.002344
  H     -5.663143   -3.751008    0.565210
  H      9.352958   -0.839971   -0.926949

 Multiplicity           Mult            ....    1
 Number of Electrons    NEL             ....  224
 Basis Dimension        Dim             .... 1070

ORBITAL ENERGIES
----------------

  NO   OCC          E(Eh)            E(eV)
   0   2.0000     -89.040185     -2422.9066
   1   2.0000     -19.342595      -526.3388
   2   2.0000     -19.342436      -526.3345
   3   2.0000     -14.496338      -394.4654
   4   2.0000     -14.490861      -394.3164
   5   2.0000     -14.489753      -394.2862
   6   2.0000     -14.486302      -394.1923
   7   2.0000     -14.474513      -393.8715
   8   2.0000     -14.459169      -393.4540
   9   2.0000     -10.379150      -282.4310
  10   2.0000     -10.375345      -282.3275
  11   2.0000     -10.372646      -282.2540
  12   2.0000     -10.361411      -281.9483
  13   2.0000     -10.360605      -281.9264
  14   2.0000     -10.349104      -281.6134
  15   2.0000     -10.344464      -281.4872
  16   2.0000     -10.344458      -281.4870
  17   2.0000     -10.338085      -281.3136
  18   2.0000     -10.330564      -281.1089
  19   2.0000     -10.322476      -280.8889
  20   2.0000     -10.318257      -280.7740
  21   2.0000     -10.308214      -280.5008
  22   2.0000     -10.307993      -280.4947
  23   2.0000     -10.305289      -280.4212
  24   2.0000     -10.301376      -280.3147
  25   2.0000     -10.298860      -280.2462
  26   2.0000     -10.296764      -280.1892
  27   2.0000     -10.294626      -280.1310
  28   2.0000     -10.289159      -279.9822
  29   2.0000     -10.287784      -279.9448
  30   2.0000     -10.285174      -279.8738
  31   2.0000     -10.276365      -279.6341
  32   2.0000      -8.128693      -221.1930
  33   2.0000      -6.084537      -165.5687
  34   2.0000      -6.078170      -165.3954
  35   2.0000      -6.073949      -165.2806
  36   2.0000      -1.292898       -35.1815
  37   2.0000      -1.289371       -35.0856
  38   2.0000      -1.111899       -30.2563
  39   2.0000      -1.109510       -30.1913
  40   2.0000      -1.073200       -29.2033
  41   2.0000      -1.021290       -27.7907
  42   2.0000      -1.011517       -27.5248
  43   2.0000      -0.992032       -26.9946
  44   2.0000      -0.983838       -26.7716
  45   2.0000      -0.968767       -26.3615
  46   2.0000      -0.943025       -25.6610
  47   2.0000      -0.925765       -25.1913
  48   2.0000      -0.912135       -24.8205
  49   2.0000      -0.906565       -24.6689
  50   2.0000      -0.885805       -24.1040
  51   2.0000      -0.876527       -23.8515
  52   2.0000      -0.850909       -23.1544
  53   2.0000      -0.845339       -23.0028
  54   2.0000      -0.802970       -21.8499
  55   2.0000      -0.784976       -21.3603
  56   2.0000      -0.774418       -21.0730
  57   2.0000      -0.766304       -20.8522
  58   2.0000      -0.741943       -20.1893
  59   2.0000      -0.738805       -20.1039
  60   2.0000      -0.725097       -19.7309
  61   2.0000      -0.719123       -19.5683
  62   2.0000      -0.713719       -19.4213
  63   2.0000      -0.706355       -19.2209
  64   2.0000      -0.673422       -18.3247
  65   2.0000      -0.667876       -18.1738
  66   2.0000      -0.635331       -17.2882
  67   2.0000      -0.632193       -17.2028
  68   2.0000      -0.620247       -16.8778
  69   2.0000      -0.612683       -16.6720
  70   2.0000      -0.610689       -16.6177
  71   2.0000      -0.607081       -16.5195
  72   2.0000      -0.597572       -16.2608
  73   2.0000      -0.594589       -16.1796
  74   2.0000      -0.583680       -15.8827
  75   2.0000      -0.573101       -15.5949
  76   2.0000      -0.568060       -15.4577
  77   2.0000      -0.563404       -15.3310
  78   2.0000      -0.561286       -15.2734
  79   2.0000      -0.552210       -15.0264
  80   2.0000      -0.547110       -14.8876
  81   2.0000      -0.535358       -14.5678
  82   2.0000      -0.534774       -14.5519
  83   2.0000      -0.529985       -14.4216
  84   2.0000      -0.527587       -14.3564
  85   2.0000      -0.521173       -14.1818
  86   2.0000      -0.507109       -13.7991
  87   2.0000      -0.502129       -13.6636
  88   2.0000      -0.497837       -13.5468
  89   2.0000      -0.494573       -13.4580
  90   2.0000      -0.477550       -12.9948
  91   2.0000      -0.473245       -12.8776
  92   2.0000      -0.472101       -12.8465
  93   2.0000      -0.455274       -12.3886
  94   2.0000      -0.449958       -12.2440
  95   2.0000      -0.447480       -12.1765
  96   2.0000      -0.441388       -12.0108
  97   2.0000      -0.435266       -11.8442
  98   2.0000      -0.432108       -11.7583
  99   2.0000      -0.416725       -11.3397
 100   2.0000      -0.411904       -11.2085
 101   2.0000      -0.407738       -11.0951
 102   2.0000      -0.398390       -10.8407
 103   2.0000      -0.396049       -10.7771
 104   2.0000      -0.380639       -10.3577
 105   2.0000      -0.375903       -10.2288
 106   2.0000      -0.371845       -10.1184
 107   2.0000      -0.349303        -9.5050
 108   2.0000      -0.338960        -9.2236
 109   2.0000      -0.334393        -9.0993
 110   2.0000      -0.305132        -8.3031
 111   2.0000      -0.294098        -8.0028
 112   0.0000      -0.064578        -1.7573
 113   0.0000      -0.004019        -0.1094
 114   0.0000       0.012529         0.3409
 115   0.0000       0.016337         0.4445
 116   0.0000       0.035744         0.9726

MULLIKEN ATOMIC CHARGES
-----------------------
   0 C :   -0.174653
   1 C :   -0.135511
   2 C :   -0.055215
   3 C :    0.168973
   4 C :   -0.240250
   5 C :   -0.076035
   6 C :   -0.014576
   7 C :    0.174168
   8 N :   -0.303291
   9 C :   -0.226482
  10 C :   -0.088132
  11 C :   -0.285734
  12 C :    0.062297
  13 H :    0.121052
  14 H :    0.237415
  15 H :    0.126519
  16 H :    0.152213
  17 H :    0.115371
  18 H :    0.124201
  19 H :    0.123373
  20 C :    0.259407
  21 N :   -0.111736
  22 O :   -0.092255
  23 C :    0.262207
  24 C :   -0.313927
  25 C :    0.119241
  26 N :   -0.160800
  27 O :   -0.127995
  28 C :    0.326236
  29 C :   -0.277911
  30 H :    0.166119
  31 H :    0.165112
  32 N :   -0.192835
  33 C :    0.057295
  34 C :    0.106258
  35 N :   -0.223413
  36 S :    0.198647
  37 C :   -0.163062
  38 C :   -0.033912
  39 N :   -0.303453
  40 C :    0.115404
  41 H :    0.143249
  42 H :    0.121337
  43 H :    0.155083
Sum of atomic charges:   -0.0000000

LOEWDIN ATOMIC CHARGES
----------------------
   0 C :   -0.155134
   1 C :   -0.095902
   2 C :   -0.080739
   3 C :   -0.144237
   4 C :   -0.133739
   5 C :   -0.137841
   6 C :   -0.033859
   7 C :   -0.142992
   8 N :    0.202186
   9 C :   -0.120104
  10 C :   -0.140786
  11 C :   -0.108484
  12 C :   -0.082524
  13 H :    0.149747
  14 H :    0.194050
  15 H :    0.147596
  16 H :    0.152469
  17 H :    0.143273
  18 H :    0.145342
  19 H :    0.145406
  20 C :   -0.216834
  21 N :    0.072838
  22 O :    0.321322
  23 C :   -0.214854
  24 C :   -0.104016
  25 C :   -0.228888
  26 N :    0.048073
  27 O :    0.312353
  28 C :   -0.197258
  29 C :   -0.120227
  30 H :    0.149189
  31 H :    0.153062
  32 N :   -0.016654
  33 C :   -0.230469
  34 C :   -0.270027
  35 N :   -0.062115
  36 S :    0.522791
  37 C :   -0.112830
  38 C :   -0.190076
  39 N :    0.160689
  40 C :   -0.128007
  41 H :    0.145658
  42 H :    0.145718
  43 H :    0.156833

  Mayer bond orders larger than 0.1
B(  0-C ,  1-C ) :   1.5391 B(  0-C ,  5-C ) :   1.3544 B(  0-C , 19-H ) :   0.9847
B(  1-C ,  2-C ) :   1.2679 B(  1-C , 16-H ) :   0.9359 B(  2-C ,  3-C ) :   1.3647
B(  2-C ,  6-C ) :   1.0807 B(  3-C ,  4-C ) :   1.3035 B(  3-C ,  8-N ) :   1.1167
B(  4-C ,  5-C ) :   1.4839 B(  4-C , 17-H ) :   0.9772 B(  5-C , 18-H ) :   0.9800
B(  6-C ,  7-C ) :   1.3312 B(  6-C , 12-C ) :   1.2486 B(  7-C ,  8-N ) :   1.1583
B(  7-C ,  9-C ) :   1.2848 B(  8-N , 14-H ) :   0.9116 B(  9-C , 10-C ) :   1.4618
B(  9-C , 42-H ) :   0.9746 B( 10-C , 11-C ) :   1.4082 B( 10-C , 15-H ) :   0.9828
B( 11-C , 12-C ) :   1.4402 B( 11-C , 13-H ) :   0.9729 B( 12-C , 28-C ) :   0.9424
B( 20-C , 21-N ) :   1.6296 B( 20-C , 24-C ) :   1.2633 B( 20-C , 39-N ) :  -0.1223
B( 20-C , 40-C ) :   0.9740 B( 21-N , 22-O ) :   0.9941 B( 21-N , 23-C ) :   0.1237
B( 22-O , 23-C ) :   1.1987 B( 23-C , 24-C ) :   1.6027 B( 23-C , 25-C ) :   1.0017
B( 24-C , 31-H ) :   0.9326 B( 25-C , 26-N ) :   1.6559 B( 25-C , 29-C ) :   1.2840
B( 26-N , 27-O ) :   0.9873 B( 26-N , 28-C ) :   0.1264 B( 27-O , 28-C ) :   1.1723
B( 28-C , 29-C ) :   1.6053 B( 29-C , 30-H ) :   0.9224 B( 32-N , 33-C ) :   1.7219
B( 32-N , 35-N ) :   0.1255 B( 32-N , 36-S ) :   1.1203 B( 33-C , 34-C ) :   1.0255
B( 33-C , 40-C ) :   1.1070 B( 34-C , 35-N ) :   1.7294 B( 34-C , 37-C ) :   1.1408
B( 35-N , 36-S ) :   1.1105 B( 37-C , 38-C ) :   1.6663 B( 37-C , 43-H ) :   0.9475
B( 38-C , 39-N ) :   1.2494 B( 38-C , 41-H ) :   0.9792 B( 39-N , 40-C ) :   1.7310

Dispersion correction           -0.019335854
FINAL SINGLE POINT ENERGY     -1760.773519274848

DIPOLE MOMENT
-------------
                                X             Y             Z
Electronic contribution:     27.73191      11.17908       2.90391
Nuclear contribution   :    -28.96411     -13.59700      -3.34317
                        -----------------------------------------
Total Dipole Moment    :     -1.23220      -2.41792      -0.43926
                        -----------------------------------------
Magnitude (a.u.)       :      2.74911
Magnitude (Debye)      :      6.98769

                             ****ORCA TERMINATED NORMALLY****
TOTAL RUN TIME: 0 days 0 hours 11 minutes 27 seconds 8 msec
