                         Program Version 4.0.0 -  RELEASE  -
|  1> #
|  2> !wB97X-D3 def2-TZVP def2/J RIJCOSX Grid5 FinalGrid6 TightSCF
|  3> %pal
|  4>  nprocs 24
|  5> end
|  6> %tddft
|  7>   Mode sTDDFT
|  8>   nroots 2
|  9>   Ethresh 10.0
| 10>   maxcore 5000
| 11>   triplets true
| 12> end
| 13> * xyz 0 1
| 14> C -6.29012663 -0.66803052 -2.39389919
| 15> C -5.56183275 -0.49285888 -1.21988113
| 16> C -6.18179350 0.11409492 -0.11174300
| 17> C -7.55233147 0.48335977 -0.22055889
| 18> C -8.28733678 0.31272766 -1.40383393
| 19> C -7.63245303 -0.26087008 -2.49075678
| 20> C -5.77596155 0.42805785 1.24886813
| 21> C -6.93934997 0.92948391 1.90199461
| 22> N -7.98395517 0.98044707 0.99656368
| 23> C -6.95985054 1.27732834 3.26106921
| 24> C -5.78316121 1.09921104 3.98559971
| 25> C -4.61809248 0.62700150 3.36569589
| 26> C -4.57606572 0.30729290 1.99634667
| 27> H -3.70747189 0.52639592 3.94918902
| 28> H -8.92694031 1.28358970 1.20703962
| 29> H -5.76074769 1.34371716 5.04390535
| 30> H -4.53420445 -0.84104960 -1.16921330
| 31> H -9.33135808 0.60803257 -1.46481625
| 32> H -8.17005314 -0.41000240 -3.42327586
| 33> H -5.81457413 -1.13391055 -3.25240729
| 34> S 1.53414328 -1.13866361 -0.13494867
| 35> C 2.17961919 -0.52229874 -1.66889019
| 36> N 1.30521138 0.23213136 -2.33204580
| 37> N 0.10324555 0.36923041 -1.70172155
| 38> C 0.03839787 -0.27601102 -0.54503164
| 39> C -1.12419938 -0.28826900 0.31262316
| 40> N -1.18478372 -0.94039249 1.46545567
| 41> N -2.38873710 -0.80136362 2.10277055
| 42> C -3.26808837 -0.06966558 1.43513993
| 43> S -2.61825171 0.57093805 -0.09054816
| 44> C 5.70978400 -1.41678886 -2.62860285
| 45> C 5.49145393 -0.63793233 -3.73606773
| 46> S 3.88574822 0.03044317 -3.73689395
| 47> C 3.50291118 -0.75748688 -2.20480356
| 48> C 4.58542336 -1.50086000 -1.74714948
| 49> C 4.66415713 -2.27161067 -0.45379197
| 50> C 5.44218965 -1.48922147 0.62010524
| 51> C 4.73054518 -0.19997170 1.04191095
| 52> C 5.63701321 0.79673760 1.77067692
| 53> C 6.81917582 1.30713918 0.93429514
| 54> C 6.41560791 1.87034674 -0.42247317
| 55> H 6.64736574 -1.92596750 -2.43317175
| 56> H 7.27286808 2.31608484 -0.92204956
| 57> H 6.02100835 1.08994492 -1.06981993
| 58> H 5.65072150 2.63631309 -0.31605578
| 59> H 3.66518371 -2.52153430 -0.08453309
| 60> H 5.17847846 -3.22199263 -0.63653046
| 61> H 6.43352464 -1.25329400 0.22264687
| 62> H 5.60027588 -2.12989753 1.49340579
| 63> H 4.30837825 0.28626209 0.15728432
| 64> H 3.88076485 -0.45029602 1.68595170
| 65> H 7.54387247 0.49982046 0.78707003
| 66> H 7.33982560 2.08061286 1.50830939
| 67> H 5.02707792 1.65097392 2.08224726
| 68> H 6.02427019 0.34098057 2.68821486
| 69> H -7.86223776 1.65784803 3.73130977
| 70> H 6.19541603 -0.43630765 -4.53317453
| 71> *
| 72> $new_job
| 73> #
| 74> !wB97X-D3 def2-TZVP def2/J RIJCOSX Grid5 FinalGrid6 TightSCF
| 75> %pal
| 76>  nprocs 24
| 77> end
| 78> %elprop
| 79>    dipole     true
| 80>    quadrupole true
| 81> end
| 82> %tddft
| 83>   Mode sTDDFT
| 84>   nroots 2
| 85>   Ethresh 10.0
| 86>   maxcore 5000
| 87> end
| 88> * xyz 0 1
| 89> C -6.29012663 -0.66803052 -2.39389919
| 90> C -5.56183275 -0.49285888 -1.21988113
| 91> C -6.18179350 0.11409492 -0.11174300
| 92> C -7.55233147 0.48335977 -0.22055889
| 93> C -8.28733678 0.31272766 -1.40383393
| 94> C -7.63245303 -0.26087008 -2.49075678
| 95> C -5.77596155 0.42805785 1.24886813
| 96> C -6.93934997 0.92948391 1.90199461
| 97> N -7.98395517 0.98044707 0.99656368
| 98> C -6.95985054 1.27732834 3.26106921
| 99> C -5.78316121 1.09921104 3.98559971
|100> C -4.61809248 0.62700150 3.36569589
|101> C -4.57606572 0.30729290 1.99634667
|102> H -3.70747189 0.52639592 3.94918902
|103> H -8.92694031 1.28358970 1.20703962
|104> H -5.76074769 1.34371716 5.04390535
|105> H -4.53420445 -0.84104960 -1.16921330
|106> H -9.33135808 0.60803257 -1.46481625
|107> H -8.17005314 -0.41000240 -3.42327586
|108> H -5.81457413 -1.13391055 -3.25240729
|109> S 1.53414328 -1.13866361 -0.13494867
|110> C 2.17961919 -0.52229874 -1.66889019
|111> N 1.30521138 0.23213136 -2.33204580
|112> N 0.10324555 0.36923041 -1.70172155
|113> C 0.03839787 -0.27601102 -0.54503164
|114> C -1.12419938 -0.28826900 0.31262316
|115> N -1.18478372 -0.94039249 1.46545567
|116> N -2.38873710 -0.80136362 2.10277055
|117> C -3.26808837 -0.06966558 1.43513993
|118> S -2.61825171 0.57093805 -0.09054816
|119> C 5.70978400 -1.41678886 -2.62860285
|120> C 5.49145393 -0.63793233 -3.73606773
|121> S 3.88574822 0.03044317 -3.73689395
|122> C 3.50291118 -0.75748688 -2.20480356
|123> C 4.58542336 -1.50086000 -1.74714948
|124> C 4.66415713 -2.27161067 -0.45379197
|125> C 5.44218965 -1.48922147 0.62010524
|126> C 4.73054518 -0.19997170 1.04191095
|127> C 5.63701321 0.79673760 1.77067692
|128> C 6.81917582 1.30713918 0.93429514
|129> C 6.41560791 1.87034674 -0.42247317
|130> H 6.64736574 -1.92596750 -2.43317175
|131> H 7.27286808 2.31608484 -0.92204956
|132> H 6.02100835 1.08994492 -1.06981993
|133> H 5.65072150 2.63631309 -0.31605578
|134> H 3.66518371 -2.52153430 -0.08453309
|135> H 5.17847846 -3.22199263 -0.63653046
|136> H 6.43352464 -1.25329400 0.22264687
|137> H 5.60027588 -2.12989753 1.49340579
|138> H 4.30837825 0.28626209 0.15728432
|139> H 3.88076485 -0.45029602 1.68595170
|140> H 7.54387247 0.49982046 0.78707003
|141> H 7.33982560 2.08061286 1.50830939
|142> H 5.02707792 1.65097392 2.08224726
|143> H 6.02427019 0.34098057 2.68821486
|144> H -7.86223776 1.65784803 3.73130977
|145> H 6.19541603 -0.43630765 -4.53317453
|146> *
|147>
|148>                          ****END OF INPUT****
 Total Charge           Charge          ....    0
 Multiplicity           Mult            ....    1
 Number of Electrons    NEL             ....  262
Dispersion correction           -0.029883535
FINAL SINGLE POINT ENERGY     -2473.050377722878

CARTESIAN COORDINATES (ANGSTROEM)
---------------------------------
  C     -6.290127   -0.668031   -2.393899
  C     -5.561833   -0.492859   -1.219881
  C     -6.181794    0.114095   -0.111743
  C     -7.552331    0.483360   -0.220559
  C     -8.287337    0.312728   -1.403834
  C     -7.632453   -0.260870   -2.490757
  C     -5.775962    0.428058    1.248868
  C     -6.939350    0.929484    1.901995
  N     -7.983955    0.980447    0.996564
  C     -6.959851    1.277328    3.261069
  C     -5.783161    1.099211    3.985600
  C     -4.618092    0.627001    3.365696
  C     -4.576066    0.307293    1.996347
  H     -3.707472    0.526396    3.949189
  H     -8.926940    1.283590    1.207040
  H     -5.760748    1.343717    5.043905
  H     -4.534204   -0.841050   -1.169213
  H     -9.331358    0.608033   -1.464816
  H     -8.170053   -0.410002   -3.423276
  H     -5.814574   -1.133911   -3.252407
  S      1.534143   -1.138664   -0.134949
  C      2.179619   -0.522299   -1.668890
  N      1.305211    0.232131   -2.332046
  N      0.103246    0.369230   -1.701722
  C      0.038398   -0.276011   -0.545032
  C     -1.124199   -0.288269    0.312623
  N     -1.184784   -0.940392    1.465456
  N     -2.388737   -0.801364    2.102771
  C     -3.268088   -0.069666    1.435140
  S     -2.618252    0.570938   -0.090548
  C      5.709784   -1.416789   -2.628603
  C      5.491454   -0.637932   -3.736068
  S      3.885748    0.030443   -3.736894
  C      3.502911   -0.757487   -2.204804
  C      4.585423   -1.500860   -1.747149
  C      4.664157   -2.271611   -0.453792
  C      5.442190   -1.489221    0.620105
  C      4.730545   -0.199972    1.041911
  C      5.637013    0.796738    1.770677
  C      6.819176    1.307139    0.934295
  C      6.415608    1.870347   -0.422473
  H      6.647366   -1.925968   -2.433172
  H      7.272868    2.316085   -0.922050
  H      6.021008    1.089945   -1.069820
  H      5.650722    2.636313   -0.316056
  H      3.665184   -2.521534   -0.084533
  H      5.178478   -3.221993   -0.636530
  H      6.433525   -1.253294    0.222647
  H      5.600276   -2.129898    1.493406
  H      4.308378    0.286262    0.157284
  H      3.880765   -0.450296    1.685952
  H      7.543872    0.499820    0.787070
  H      7.339826    2.080613    1.508309
  H      5.027078    1.650974    2.082247
  H      6.024270    0.340981    2.688215
  H     -7.862238    1.657848    3.731310
  H      6.195416   -0.436308   -4.533175

 Multiplicity           Mult            ....    1
 Number of Electrons    NEL             ....  262
 Basis Dimension        Dim             .... 1210

ORBITAL ENERGIES
----------------

  NO   OCC          E(Eh)            E(eV)
   0   2.0000     -89.010172     -2422.0899
   1   2.0000     -89.006173     -2421.9811
   2   2.0000     -88.986712     -2421.4515
   3   2.0000     -14.474503      -393.8713
   4   2.0000     -14.473281      -393.8380
   5   2.0000     -14.470261      -393.7558
   6   2.0000     -14.463744      -393.5785
   7   2.0000     -14.463127      -393.5617
   8   2.0000     -10.379651      -282.4447
   9   2.0000     -10.377395      -282.3833
  10   2.0000     -10.376898      -282.3697
  11   2.0000     -10.371889      -282.2335
  12   2.0000     -10.336152      -281.2610
  13   2.0000     -10.334557      -281.2176
  14   2.0000     -10.332230      -281.1543
  15   2.0000     -10.323799      -280.9249
  16   2.0000     -10.318772      -280.7881
  17   2.0000     -10.314006      -280.6584
  18   2.0000     -10.305957      -280.4394
  19   2.0000     -10.298882      -280.2468
  20   2.0000     -10.297001      -280.1957
  21   2.0000     -10.294867      -280.1376
  22   2.0000     -10.294619      -280.1308
  23   2.0000     -10.294413      -280.1252
  24   2.0000     -10.291650      -280.0500
  25   2.0000     -10.290559      -280.0204
  26   2.0000     -10.290092      -280.0076
  27   2.0000     -10.290036      -280.0061
  28   2.0000     -10.280604      -279.7495
  29   2.0000     -10.280383      -279.7434
  30   2.0000     -10.268906      -279.4311
  31   2.0000     -10.267854      -279.4025
  32   2.0000     -10.267485      -279.3925
  33   2.0000     -10.255754      -279.0732
  34   2.0000      -8.106254      -220.5824
  35   2.0000      -8.102462      -220.4792
  36   2.0000      -8.082604      -219.9388
  37   2.0000      -6.059434      -164.8856
  38   2.0000      -6.055551      -164.7799
  39   2.0000      -6.055501      -164.7785
  40   2.0000      -6.053189      -164.7156
  41   2.0000      -6.051595      -164.6723
  42   2.0000      -6.049540      -164.6163
  43   2.0000      -6.036053      -164.2493
  44   2.0000      -6.031589      -164.1279
  45   2.0000      -6.029653      -164.0752
  46   2.0000      -1.155439       -31.4411
  47   2.0000      -1.146957       -31.2103
  48   2.0000      -1.111636       -30.2491
  49   2.0000      -1.016748       -27.6671
  50   2.0000      -0.992745       -27.0140
  51   2.0000      -0.975852       -26.5543
  52   2.0000      -0.971695       -26.4412
  53   2.0000      -0.948431       -25.8081
  54   2.0000      -0.938488       -25.5376
  55   2.0000      -0.932958       -25.3871
  56   2.0000      -0.914769       -24.8921
  57   2.0000      -0.905819       -24.6486
  58   2.0000      -0.903427       -24.5835
  59   2.0000      -0.877018       -23.8649
  60   2.0000      -0.857197       -23.3255
  61   2.0000      -0.855085       -23.2681
  62   2.0000      -0.851734       -23.1769
  63   2.0000      -0.845238       -23.0001
  64   2.0000      -0.816791       -22.2260
  65   2.0000      -0.781078       -21.2542
  66   2.0000      -0.775025       -21.0895
  67   2.0000      -0.764698       -20.8085
  68   2.0000      -0.744153       -20.2494
  69   2.0000      -0.728400       -19.8208
  70   2.0000      -0.720809       -19.6142
  71   2.0000      -0.718824       -19.5602
  72   2.0000      -0.716398       -19.4942
  73   2.0000      -0.691427       -18.8147
  74   2.0000      -0.677370       -18.4322
  75   2.0000      -0.664067       -18.0702
  76   2.0000      -0.658048       -17.9064
  77   2.0000      -0.647429       -17.6174
  78   2.0000      -0.638225       -17.3670
  79   2.0000      -0.624134       -16.9836
  80   2.0000      -0.618075       -16.8187
  81   2.0000      -0.615181       -16.7399
  82   2.0000      -0.586256       -15.9528
  83   2.0000      -0.576202       -15.6793
  84   2.0000      -0.574073       -15.6213
  85   2.0000      -0.568186       -15.4611
  86   2.0000      -0.563820       -15.3423
  87   2.0000      -0.562058       -15.2944
  88   2.0000      -0.554162       -15.0795
  89   2.0000      -0.552290       -15.0286
  90   2.0000      -0.548460       -14.9243
  91   2.0000      -0.546076       -14.8595
  92   2.0000      -0.542574       -14.7642
  93   2.0000      -0.537644       -14.6300
  94   2.0000      -0.536876       -14.6091
  95   2.0000      -0.530349       -14.4315
  96   2.0000      -0.524020       -14.2593
  97   2.0000      -0.523278       -14.2391
  98   2.0000      -0.513483       -13.9726
  99   2.0000      -0.505759       -13.7624
 100   2.0000      -0.495882       -13.4936
 101   2.0000      -0.484513       -13.1843
 102   2.0000      -0.478452       -13.0193
 103   2.0000      -0.474412       -12.9094
 104   2.0000      -0.473038       -12.8720
 105   2.0000      -0.471905       -12.8412
 106   2.0000      -0.470183       -12.7943
 107   2.0000      -0.457809       -12.4576
 108   2.0000      -0.452047       -12.3008
 109   2.0000      -0.448292       -12.1987
 110   2.0000      -0.447907       -12.1882
 111   2.0000      -0.443516       -12.0687
 112   2.0000      -0.441358       -12.0100
 113   2.0000      -0.431702       -11.7472
 114   2.0000      -0.426902       -11.6166
 115   2.0000      -0.420314       -11.4373
 116   2.0000      -0.411557       -11.1990
 117   2.0000      -0.410639       -11.1741
 118   2.0000      -0.404837       -11.0162
 119   2.0000      -0.399925       -10.8825
 120   2.0000      -0.395497       -10.7620
 121   2.0000      -0.390579       -10.6282
 122   2.0000      -0.387137       -10.5345
 123   2.0000      -0.373674       -10.1682
 124   2.0000      -0.369154       -10.0452
 125   2.0000      -0.367594       -10.0027
 126   2.0000      -0.343885        -9.3576
 127   2.0000      -0.340626        -9.2689
 128   2.0000      -0.310379        -8.4458
 129   2.0000      -0.303897        -8.2695
 130   2.0000      -0.293310        -7.9814
 131   0.0000      -0.032388        -0.8813
 132   0.0000       0.002037         0.0554
 133   0.0000       0.027451         0.7470
 134   0.0000       0.050419         1.3720
 135   0.0000       0.061188         1.6650

MULLIKEN ATOMIC CHARGES
-----------------------
   0 C :   -0.174663
   1 C :   -0.131289
   2 C :   -0.029829
   3 C :    0.168160
   4 C :   -0.233264
   5 C :   -0.079935
   6 C :   -0.035030
   7 C :    0.181451
   8 N :   -0.301525
   9 C :   -0.238421
  10 C :   -0.057243
  11 C :   -0.293872
  12 C :    0.156956
  13 H :    0.146386
  14 H :    0.238678
  15 H :    0.128698
  16 H :    0.140338
  17 H :    0.117565
  18 H :    0.125577
  19 H :    0.123893
  20 S :    0.040218
  21 C :    0.250733
  22 N :   -0.160556
  23 N :   -0.173514
  24 C :    0.082584
  25 C :    0.106991
  26 N :   -0.170135
  27 N :   -0.153936
  28 C :    0.079490
  29 S :    0.063728
  30 C :   -0.187358
  31 C :   -0.183769
  32 S :    0.100481
  33 C :   -0.068005
  34 C :   -0.089750
  35 C :   -0.217625
  36 C :   -0.193198
  37 C :   -0.271074
  38 C :   -0.175131
  39 C :   -0.193662
  40 C :   -0.353316
  41 H :    0.139018
  42 H :    0.117142
  43 H :    0.110102
  44 H :    0.114758
  45 H :    0.137847
  46 H :    0.130880
  47 H :    0.105128
  48 H :    0.111124
  49 H :    0.128762
  50 H :    0.123486
  51 H :    0.097810
  52 H :    0.102791
  53 H :    0.110978
  54 H :    0.098614
  55 H :    0.121759
  56 H :    0.163976
Sum of atomic charges:    0.0000000

LOEWDIN ATOMIC CHARGES
----------------------
   0 C :   -0.154912
   1 C :   -0.112955
   2 C :   -0.086169
   3 C :   -0.143761
   4 C :   -0.130626
   5 C :   -0.137877
   6 C :   -0.046023
   7 C :   -0.143337
   8 N :    0.201911
   9 C :   -0.119400
  10 C :   -0.137414
  11 C :   -0.097983
  12 C :   -0.115186
  13 H :    0.156036
  14 H :    0.194149
  15 H :    0.148131
  16 H :    0.141003
  17 H :    0.143942
  18 H :    0.145833
  19 H :    0.145568
  20 S :    0.741954
  21 C :   -0.435520
  22 N :    0.032153
  23 N :    0.049569
  24 C :   -0.460308
  25 C :   -0.463019
  26 N :    0.043520
  27 N :    0.048527
  28 C :   -0.384255
  29 S :    0.755759
  30 C :   -0.184000
  31 C :   -0.367489
  32 S :    0.744630
  33 C :   -0.344957
  34 C :   -0.160312
  35 C :   -0.217714
  36 C :   -0.247962
  37 C :   -0.274201
  38 C :   -0.267608
  39 C :   -0.298059
  40 C :   -0.309537
  41 H :    0.147164
  42 H :    0.117623
  43 H :    0.119569
  44 H :    0.119964
  45 H :    0.135633
  46 H :    0.148769
  47 H :    0.137661
  48 H :    0.137038
  49 H :    0.140569
  50 H :    0.133489
  51 H :    0.128230
  52 H :    0.133056
  53 H :    0.136784
  54 H :    0.134802
  55 H :    0.145489
  56 H :    0.132056

  Mayer bond orders larger than 0.1
B(  0-C ,  1-C ) :   1.5387 B(  0-C ,  5-C ) :   1.3594 B(  0-C , 19-H ) :   0.9814
B(  1-C ,  2-C ) :   1.2515 B(  1-C , 16-H ) :   0.9361 B(  2-C ,  3-C ) :   1.3872
B(  2-C ,  6-C ) :   1.0679 B(  3-C ,  4-C ) :   1.3107 B(  3-C ,  8-N ) :   1.1236
B(  4-C ,  5-C ) :   1.4877 B(  4-C , 17-H ) :   0.9736 B(  5-C , 18-H ) :   0.9795
B(  6-C ,  7-C ) :   1.3360 B(  6-C , 12-C ) :   1.2070 B(  7-C ,  8-N ) :   1.1515
B(  7-C ,  9-C ) :   1.2847 B(  8-N , 14-H ) :   0.9119 B(  9-C , 10-C ) :   1.4596
B(  9-C , 55-H ) :   0.9738 B( 10-C , 11-C ) :   1.3819 B( 10-C , 15-H ) :   0.9829
B( 11-C , 12-C ) :   1.4654 B( 11-C , 13-H ) :   0.9615 B( 12-C , 28-C ) :   0.8666
B( 20-S , 21-C ) :   1.2704 B( 20-S , 24-C ) :   1.3171 B( 21-C , 22-N ) :   1.7116
B( 21-C , 32-S ) :  -0.1025 B( 21-C , 33-C ) :   0.8060 B( 22-N , 23-N ) :   1.1628
B( 23-N , 24-C ) :   1.7079 B( 24-C , 25-C ) :   0.9565 B( 25-C , 26-N ) :   1.7232
B( 25-C , 29-S ) :   1.2893 B( 26-N , 27-N ) :   1.1584 B( 27-N , 28-C ) :   1.6972
B( 28-C , 29-S ) :   1.2542 B( 30-C , 31-C ) :   1.6726 B( 30-C , 34-C ) :   1.2780
B( 30-C , 41-H ) :   0.9637 B( 31-C , 32-S ) :   1.2873 B( 31-C , 56-H ) :   0.9447
B( 32-S , 33-C ) :   1.2968 B( 33-C , 34-C ) :   1.4530 B( 34-C , 35-C ) :   0.9045
B( 35-C , 36-C ) :   0.9650 B( 35-C , 45-H ) :   0.9915 B( 35-C , 46-H ) :   0.9752
B( 36-C , 37-C ) :   0.9527 B( 36-C , 47-H ) :   0.9808 B( 36-C , 48-H ) :   0.9628
B( 37-C , 38-C ) :   0.9628 B( 37-C , 49-H ) :   0.9820 B( 37-C , 50-H ) :   0.9615
B( 38-C , 39-C ) :   0.9799 B( 38-C , 53-H ) :   0.9838 B( 38-C , 54-H ) :   0.9792
B( 39-C , 40-C ) :   0.9610 B( 39-C , 51-H ) :   0.9845 B( 39-C , 52-H ) :   0.9800
B( 40-C , 42-H ) :   0.9806 B( 40-C , 43-H ) :   0.9805 B( 40-C , 44-H ) :   0.9798

Dispersion correction           -0.029883535
FINAL SINGLE POINT ENERGY     -2473.050377638808

DIPOLE MOMENT
-------------
                                X             Y             Z
Electronic contribution:    -44.85116      -3.18024      -9.32349
Nuclear contribution   :     44.40776       3.30548       9.62433
                        -----------------------------------------
Total Dipole Moment    :     -0.44340       0.12524       0.30083
                        -----------------------------------------
Magnitude (a.u.)       :      0.55026
Magnitude (Debye)      :      1.39866

                             ****ORCA TERMINATED NORMALLY****
TOTAL RUN TIME: 0 days 0 hours 14 minutes 53 seconds 604 msec
