                         Program Version 4.0.0 -  RELEASE  -
|  1> #
|  2> !wB97X-D3 def2-TZVP def2/J RIJCOSX Grid5 FinalGrid6 TightSCF
|  3> %pal
|  4>  nprocs 24
|  5> end
|  6> %tddft
|  7>   Mode sTDDFT
|  8>   nroots 2
|  9>   Ethresh 10.0
| 10>   maxcore 5000
| 11>   triplets true
| 12> end
| 13> * xyz 0 1
| 14> C 8.44957584 0.18071500 -2.65641484
| 15> C 7.53576646 -0.02842623 -1.62655392
| 16> C 7.97576043 -0.62708652 -0.43056637
| 17> C 9.34120634 -1.01678313 -0.33234426
| 18> C 10.26522621 -0.80194138 -1.36629423
| 19> C 9.79859794 -0.19376312 -2.52879357
| 20> C 7.34214758 -1.02320845 0.81824409
| 21> C 8.35932365 -1.65580631 1.59249097
| 22> N 9.55138614 -1.62363314 0.89357878
| 23> C 8.12084180 -2.22450165 2.85259359
| 24> C 6.81868621 -2.16802859 3.34433945
| 25> C 5.79927864 -1.54683967 2.61110180
| 26> C 6.02973478 -0.94922930 1.35761012
| 27> H 4.79952320 -1.50047830 3.03450983
| 28> H 10.42858609 -2.01535886 1.21361522
| 29> H 6.58832644 -2.60303121 4.31270165
| 30> H 6.50008449 0.26651336 -1.75915145
| 31> H 11.30367696 -1.10548406 -1.26413930
| 32> H 10.48459419 -0.01184842 -3.35178046
| 33> H 8.11425232 0.64349799 -3.58039702
| 34> C -0.64840385 0.85055266 -0.45056492
| 35> N -0.14138104 1.81028304 -1.23861759
| 36> O 1.21277886 1.74573478 -1.13024218
| 37> C 1.55734867 0.76118177 -0.28470333
| 38> C 0.41662242 0.14438256 0.18745986
| 39> C 2.96905601 0.51944396 -0.02308504
| 40> N 3.94148862 1.25258241 -0.58491942
| 41> O 5.11929895 0.75164738 -0.12554420
| 42> C 4.90009139 -0.27824058 0.70575323
| 43> C 3.53630484 -0.47494920 0.82564660
| 44> H 3.02133054 -1.22661140 1.40612756
| 45> H 0.36266971 -0.67157385 0.89174266
| 46> C -4.90024724 0.29419144 -0.07336774
| 47> C -4.03443772 -0.75756568 0.27388274
| 48> C -2.63142936 -0.58735342 0.13482813
| 49> C -2.10297974 0.64792841 -0.31788837
| 50> C -2.99036950 1.70480896 -0.64542446
| 51> C -4.39467854 1.51887473 -0.53858764
| 52> N -2.48335684 2.98072782 -0.96963374
| 53> C -2.75306477 3.60657351 -2.06653391
| 54> C -2.24265755 5.01333217 -2.25507397
| 55> N -5.25437162 2.62549389 -0.76653909
| 56> C -6.29856045 2.56248918 -1.52666710
| 57> C -7.18863599 3.77553160 -1.64755894
| 58> N -4.54267225 -2.03924280 0.61154555
| 59> C -5.44650059 -2.22509672 1.51778959
| 60> C -6.00675243 -1.14819352 2.42964252
| 61> N -1.77826746 -1.69803423 0.33889994
| 62> C -1.72263867 -2.36102598 1.44666962
| 63> C -2.40135644 -1.95478228 2.74049233
| 64> C -3.50391287 3.01002817 -3.24163634
| 65> C -6.69694048 1.36237457 -2.36671061
| 66> C -5.97399503 -3.62087426 1.74716773
| 67> C -0.86105545 -3.59847397 1.51625394
| 68> H -3.66336732 1.94325282 -3.10864681
| 69> H -2.94739725 3.17012627 -4.16448091
| 70> H -4.47609642 3.48907147 -3.36192116
| 71> H -3.06472870 5.69392466 -2.47841515
| 72> H -1.72990223 5.36720930 -1.36571660
| 73> H -1.55098033 5.06183367 -3.09653922
| 74> H -0.06819943 -3.47664159 2.25525649
| 75> H -1.45265242 -4.46059554 1.82426755
| 76> H -0.40743782 -3.81591231 0.55387690
| 77> H -3.19838720 -2.65345022 2.99534580
| 78> H -2.83114667 -0.95951029 2.66595500
| 79> H -1.68421823 -1.96869354 3.56093601
| 80> H -6.13178141 -1.53567845 3.43950529
| 81> H -6.98846069 -0.82167552 2.08572102
| 82> H -5.35522667 -0.27882733 2.46256360
| 83> H -5.75092038 -3.95547090 2.76107273
| 84> H -7.05823407 -3.64656179 1.63667081
| 85> H -5.53696830 -4.32570892 1.04616395
| 86> H -7.50499230 0.80750766 -1.88931753
| 87> H -5.86021144 0.68345320 -2.50897817
| 88> H -7.06002167 1.68628090 -3.34072533
| 89> H -6.84717876 4.57887904 -1.00164717
| 90> H -7.20534165 4.13960440 -2.67553294
| 91> H -8.21666184 3.52787230 -1.38244143
| 92> H 8.91924292 -2.69843831 3.41653883
| 93> H -5.97372958 0.15652589 0.01563496
| 94> *
| 95> $new_job
| 96> #
| 97> !wB97X-D3 def2-TZVP def2/J RIJCOSX Grid5 FinalGrid6 TightSCF
| 98> %pal
| 99>  nprocs 24
|100> end
|101> %elprop
|102>    dipole     true
|103>    quadrupole true
|104> end
|105> %tddft
|106>   Mode sTDDFT
|107>   nroots 2
|108>   Ethresh 10.0
|109>   maxcore 5000
|110> end
|111> * xyz 0 1
|112> C 8.44957584 0.18071500 -2.65641484
|113> C 7.53576646 -0.02842623 -1.62655392
|114> C 7.97576043 -0.62708652 -0.43056637
|115> C 9.34120634 -1.01678313 -0.33234426
|116> C 10.26522621 -0.80194138 -1.36629423
|117> C 9.79859794 -0.19376312 -2.52879357
|118> C 7.34214758 -1.02320845 0.81824409
|119> C 8.35932365 -1.65580631 1.59249097
|120> N 9.55138614 -1.62363314 0.89357878
|121> C 8.12084180 -2.22450165 2.85259359
|122> C 6.81868621 -2.16802859 3.34433945
|123> C 5.79927864 -1.54683967 2.61110180
|124> C 6.02973478 -0.94922930 1.35761012
|125> H 4.79952320 -1.50047830 3.03450983
|126> H 10.42858609 -2.01535886 1.21361522
|127> H 6.58832644 -2.60303121 4.31270165
|128> H 6.50008449 0.26651336 -1.75915145
|129> H 11.30367696 -1.10548406 -1.26413930
|130> H 10.48459419 -0.01184842 -3.35178046
|131> H 8.11425232 0.64349799 -3.58039702
|132> C -0.64840385 0.85055266 -0.45056492
|133> N -0.14138104 1.81028304 -1.23861759
|134> O 1.21277886 1.74573478 -1.13024218
|135> C 1.55734867 0.76118177 -0.28470333
|136> C 0.41662242 0.14438256 0.18745986
|137> C 2.96905601 0.51944396 -0.02308504
|138> N 3.94148862 1.25258241 -0.58491942
|139> O 5.11929895 0.75164738 -0.12554420
|140> C 4.90009139 -0.27824058 0.70575323
|141> C 3.53630484 -0.47494920 0.82564660
|142> H 3.02133054 -1.22661140 1.40612756
|143> H 0.36266971 -0.67157385 0.89174266
|144> C -4.90024724 0.29419144 -0.07336774
|145> C -4.03443772 -0.75756568 0.27388274
|146> C -2.63142936 -0.58735342 0.13482813
|147> C -2.10297974 0.64792841 -0.31788837
|148> C -2.99036950 1.70480896 -0.64542446
|149> C -4.39467854 1.51887473 -0.53858764
|150> N -2.48335684 2.98072782 -0.96963374
|151> C -2.75306477 3.60657351 -2.06653391
|152> C -2.24265755 5.01333217 -2.25507397
|153> N -5.25437162 2.62549389 -0.76653909
|154> C -6.29856045 2.56248918 -1.52666710
|155> C -7.18863599 3.77553160 -1.64755894
|156> N -4.54267225 -2.03924280 0.61154555
|157> C -5.44650059 -2.22509672 1.51778959
|158> C -6.00675243 -1.14819352 2.42964252
|159> N -1.77826746 -1.69803423 0.33889994
|160> C -1.72263867 -2.36102598 1.44666962
|161> C -2.40135644 -1.95478228 2.74049233
|162> C -3.50391287 3.01002817 -3.24163634
|163> C -6.69694048 1.36237457 -2.36671061
|164> C -5.97399503 -3.62087426 1.74716773
|165> C -0.86105545 -3.59847397 1.51625394
|166> H -3.66336732 1.94325282 -3.10864681
|167> H -2.94739725 3.17012627 -4.16448091
|168> H -4.47609642 3.48907147 -3.36192116
|169> H -3.06472870 5.69392466 -2.47841515
|170> H -1.72990223 5.36720930 -1.36571660
|171> H -1.55098033 5.06183367 -3.09653922
|172> H -0.06819943 -3.47664159 2.25525649
|173> H -1.45265242 -4.46059554 1.82426755
|174> H -0.40743782 -3.81591231 0.55387690
|175> H -3.19838720 -2.65345022 2.99534580
|176> H -2.83114667 -0.95951029 2.66595500
|177> H -1.68421823 -1.96869354 3.56093601
|178> H -6.13178141 -1.53567845 3.43950529
|179> H -6.98846069 -0.82167552 2.08572102
|180> H -5.35522667 -0.27882733 2.46256360
|181> H -5.75092038 -3.95547090 2.76107273
|182> H -7.05823407 -3.64656179 1.63667081
|183> H -5.53696830 -4.32570892 1.04616395
|184> H -7.50499230 0.80750766 -1.88931753
|185> H -5.86021144 0.68345320 -2.50897817
|186> H -7.06002167 1.68628090 -3.34072533
|187> H -6.84717876 4.57887904 -1.00164717
|188> H -7.20534165 4.13960440 -2.67553294
|189> H -8.21666184 3.52787230 -1.38244143
|190> H 8.91924292 -2.69843831 3.41653883
|191> H -5.97372958 0.15652589 0.01563496
|192> *
|193>
|194>                          ****END OF INPUT****
 Total Charge           Charge          ....    0
 Multiplicity           Mult            ....    1
 Number of Electrons    NEL             ....  316
Dispersion correction           -0.043401124
FINAL SINGLE POINT ENERGY     -1926.660363568699

CARTESIAN COORDINATES (ANGSTROEM)
---------------------------------
  C      8.449576    0.180715   -2.656415
  C      7.535766   -0.028426   -1.626554
  C      7.975760   -0.627087   -0.430566
  C      9.341206   -1.016783   -0.332344
  C     10.265226   -0.801941   -1.366294
  C      9.798598   -0.193763   -2.528794
  C      7.342148   -1.023208    0.818244
  C      8.359324   -1.655806    1.592491
  N      9.551386   -1.623633    0.893579
  C      8.120842   -2.224502    2.852594
  C      6.818686   -2.168029    3.344339
  C      5.799279   -1.546840    2.611102
  C      6.029735   -0.949229    1.357610
  H      4.799523   -1.500478    3.034510
  H     10.428586   -2.015359    1.213615
  H      6.588326   -2.603031    4.312702
  H      6.500084    0.266513   -1.759151
  H     11.303677   -1.105484   -1.264139
  H     10.484594   -0.011848   -3.351780
  H      8.114252    0.643498   -3.580397
  C     -0.648404    0.850553   -0.450565
  N     -0.141381    1.810283   -1.238618
  O      1.212779    1.745735   -1.130242
  C      1.557349    0.761182   -0.284703
  C      0.416622    0.144383    0.187460
  C      2.969056    0.519444   -0.023085
  N      3.941489    1.252582   -0.584919
  O      5.119299    0.751647   -0.125544
  C      4.900091   -0.278241    0.705753
  C      3.536305   -0.474949    0.825647
  H      3.021331   -1.226611    1.406128
  H      0.362670   -0.671574    0.891743
  C     -4.900247    0.294191   -0.073368
  C     -4.034438   -0.757566    0.273883
  C     -2.631429   -0.587353    0.134828
  C     -2.102980    0.647928   -0.317888
  C     -2.990369    1.704809   -0.645424
  C     -4.394679    1.518875   -0.538588
  N     -2.483357    2.980728   -0.969634
  C     -2.753065    3.606574   -2.066534
  C     -2.242658    5.013332   -2.255074
  N     -5.254372    2.625494   -0.766539
  C     -6.298560    2.562489   -1.526667
  C     -7.188636    3.775532   -1.647559
  N     -4.542672   -2.039243    0.611546
  C     -5.446501   -2.225097    1.517790
  C     -6.006752   -1.148194    2.429643
  N     -1.778267   -1.698034    0.338900
  C     -1.722639   -2.361026    1.446670
  C     -2.401356   -1.954782    2.740492
  C     -3.503913    3.010028   -3.241636
  C     -6.696940    1.362375   -2.366711
  C     -5.973995   -3.620874    1.747168
  C     -0.861055   -3.598474    1.516254
  H     -3.663367    1.943253   -3.108647
  H     -2.947397    3.170126   -4.164481
  H     -4.476096    3.489071   -3.361921
  H     -3.064729    5.693925   -2.478415
  H     -1.729902    5.367209   -1.365717
  H     -1.550980    5.061834   -3.096539
  H     -0.068199   -3.476642    2.255256
  H     -1.452652   -4.460596    1.824268
  H     -0.407438   -3.815912    0.553877
  H     -3.198387   -2.653450    2.995346
  H     -2.831147   -0.959510    2.665955
  H     -1.684218   -1.968694    3.560936
  H     -6.131781   -1.535678    3.439505
  H     -6.988461   -0.821676    2.085721
  H     -5.355227   -0.278827    2.462564
  H     -5.750920   -3.955471    2.761073
  H     -7.058234   -3.646562    1.636671
  H     -5.536968   -4.325709    1.046164
  H     -7.504992    0.807508   -1.889318
  H     -5.860211    0.683453   -2.508978
  H     -7.060022    1.686281   -3.340725
  H     -6.847179    4.578879   -1.001647
  H     -7.205342    4.139604   -2.675533
  H     -8.216662    3.527872   -1.382441
  H      8.919243   -2.698438    3.416539
  H     -5.973730    0.156526    0.015635

 Multiplicity           Mult            ....    1
 Number of Electrons    NEL             ....  316
 Basis Dimension        Dim             .... 1605

ORBITAL ENERGIES
----------------

  NO   OCC          E(Eh)            E(eV)
   0   2.0000     -19.329618      -525.9856
   1   2.0000     -19.313819      -525.5557
   2   2.0000     -14.472142      -393.8070
   3   2.0000     -14.468857      -393.7176
   4   2.0000     -14.457260      -393.4020
   5   2.0000     -14.418922      -392.3588
   6   2.0000     -14.416381      -392.2897
   7   2.0000     -14.415355      -392.2618
   8   2.0000     -14.401598      -391.8874
   9   2.0000     -10.361187      -281.9422
  10   2.0000     -10.349330      -281.6196
  11   2.0000     -10.341762      -281.4137
  12   2.0000     -10.341184      -281.3979
  13   2.0000     -10.338489      -281.3246
  14   2.0000     -10.334503      -281.2161
  15   2.0000     -10.332225      -281.1541
  16   2.0000     -10.325045      -280.9588
  17   2.0000     -10.324385      -280.9408
  18   2.0000     -10.316495      -280.7261
  19   2.0000     -10.316461      -280.7252
  20   2.0000     -10.315646      -280.7030
  21   2.0000     -10.313379      -280.6413
  22   2.0000     -10.310783      -280.5707
  23   2.0000     -10.309255      -280.5291
  24   2.0000     -10.301517      -280.3185
  25   2.0000     -10.295343      -280.1505
  26   2.0000     -10.293989      -280.1137
  27   2.0000     -10.293432      -280.0985
  28   2.0000     -10.293201      -280.0922
  29   2.0000     -10.290085      -280.0075
  30   2.0000     -10.288823      -279.9731
  31   2.0000     -10.283941      -279.8403
  32   2.0000     -10.283702      -279.8338
  33   2.0000     -10.282600      -279.8038
  34   2.0000     -10.282170      -279.7921
  35   2.0000     -10.281317      -279.7689
  36   2.0000     -10.280543      -279.7478
  37   2.0000     -10.280417      -279.7444
  38   2.0000     -10.280392      -279.7437
  39   2.0000     -10.279149      -279.7099
  40   2.0000     -10.277413      -279.6626
  41   2.0000     -10.276568      -279.6396
  42   2.0000     -10.270877      -279.4848
  43   2.0000     -10.266876      -279.3759
  44   2.0000     -10.258694      -279.1532
  45   2.0000      -1.278254       -34.7831
  46   2.0000      -1.261408       -34.3247
  47   2.0000      -1.106251       -30.1026
  48   2.0000      -1.063509       -28.9396
  49   2.0000      -1.051070       -28.6011
  50   2.0000      -1.033499       -28.1229
  51   2.0000      -1.023853       -27.8604
  52   2.0000      -1.000728       -27.2312
  53   2.0000      -0.981342       -26.7037
  54   2.0000      -0.971068       -26.4241
  55   2.0000      -0.962927       -26.2026
  56   2.0000      -0.946933       -25.7674
  57   2.0000      -0.930465       -25.3192
  58   2.0000      -0.903397       -24.5827
  59   2.0000      -0.900878       -24.5141
  60   2.0000      -0.900440       -24.5022
  61   2.0000      -0.888680       -24.1822
  62   2.0000      -0.876213       -23.8430
  63   2.0000      -0.869218       -23.6526
  64   2.0000      -0.863738       -23.5035
  65   2.0000      -0.844756       -22.9870
  66   2.0000      -0.840615       -22.8743
  67   2.0000      -0.839283       -22.8381
  68   2.0000      -0.827981       -22.5305
  69   2.0000      -0.823260       -22.4020
  70   2.0000      -0.821119       -22.3438
  71   2.0000      -0.810565       -22.0566
  72   2.0000      -0.801610       -21.8129
  73   2.0000      -0.772557       -21.0224
  74   2.0000      -0.760964       -20.7069
  75   2.0000      -0.749072       -20.3833
  76   2.0000      -0.733851       -19.9691
  77   2.0000      -0.728241       -19.8164
  78   2.0000      -0.719394       -19.5757
  79   2.0000      -0.712807       -19.3965
  80   2.0000      -0.704625       -19.1738
  81   2.0000      -0.698098       -18.9962
  82   2.0000      -0.680808       -18.5257
  83   2.0000      -0.669423       -18.2159
  84   2.0000      -0.661056       -17.9882
  85   2.0000      -0.632661       -17.2156
  86   2.0000      -0.627514       -17.0755
  87   2.0000      -0.624552       -16.9949
  88   2.0000      -0.614195       -16.7131
  89   2.0000      -0.604566       -16.4511
  90   2.0000      -0.602797       -16.4029
  91   2.0000      -0.599951       -16.3255
  92   2.0000      -0.595539       -16.2054
  93   2.0000      -0.591242       -16.0885
  94   2.0000      -0.586582       -15.9617
  95   2.0000      -0.581358       -15.8196
  96   2.0000      -0.577029       -15.7018
  97   2.0000      -0.572114       -15.5680
  98   2.0000      -0.565918       -15.3994
  99   2.0000      -0.561181       -15.2705
 100   2.0000      -0.559637       -15.2285
 101   2.0000      -0.558570       -15.1995
 102   2.0000      -0.555236       -15.1087
 103   2.0000      -0.552650       -15.0384
 104   2.0000      -0.549430       -14.9507
 105   2.0000      -0.546855       -14.8807
 106   2.0000      -0.546232       -14.8637
 107   2.0000      -0.538407       -14.6508
 108   2.0000      -0.537756       -14.6331
 109   2.0000      -0.532689       -14.4952
 110   2.0000      -0.530936       -14.4475
 111   2.0000      -0.528532       -14.3821
 112   2.0000      -0.526284       -14.3209
 113   2.0000      -0.522614       -14.2210
 114   2.0000      -0.521789       -14.1986
 115   2.0000      -0.515519       -14.0280
 116   2.0000      -0.506802       -13.7908
 117   2.0000      -0.502451       -13.6724
 118   2.0000      -0.499045       -13.5797
 119   2.0000      -0.498140       -13.5551
 120   2.0000      -0.493975       -13.4418
 121   2.0000      -0.493762       -13.4359
 122   2.0000      -0.489895       -13.3307
 123   2.0000      -0.483514       -13.1571
 124   2.0000      -0.481640       -13.1061
 125   2.0000      -0.474502       -12.9118
 126   2.0000      -0.473851       -12.8941
 127   2.0000      -0.470909       -12.8141
 128   2.0000      -0.469739       -12.7822
 129   2.0000      -0.467503       -12.7214
 130   2.0000      -0.466782       -12.7018
 131   2.0000      -0.465853       -12.6765
 132   2.0000      -0.464975       -12.6526
 133   2.0000      -0.462978       -12.5983
 134   2.0000      -0.451285       -12.2801
 135   2.0000      -0.443835       -12.0774
 136   2.0000      -0.441124       -12.0036
 137   2.0000      -0.433272       -11.7899
 138   2.0000      -0.424127       -11.5411
 139   2.0000      -0.423395       -11.5212
 140   2.0000      -0.414493       -11.2789
 141   2.0000      -0.405730       -11.0405
 142   2.0000      -0.397046       -10.8042
 143   2.0000      -0.395676       -10.7669
 144   2.0000      -0.388845       -10.5810
 145   2.0000      -0.379701       -10.3322
 146   2.0000      -0.372362       -10.1325
 147   2.0000      -0.368415       -10.0251
 148   2.0000      -0.360989        -9.8230
 149   2.0000      -0.353238        -9.6121
 150   2.0000      -0.347105        -9.4452
 151   2.0000      -0.338005        -9.1976
 152   2.0000      -0.332411        -9.0454
 153   2.0000      -0.321029        -8.7357
 154   2.0000      -0.299227        -8.1424
 155   2.0000      -0.292658        -7.9636
 156   2.0000      -0.287677        -7.8281
 157   2.0000      -0.266541        -7.2530
 158   0.0000       0.004727         0.1286
 159   0.0000       0.025706         0.6995
 160   0.0000       0.040511         1.1024
 161   0.0000       0.042085         1.1452
 162   0.0000       0.053356         1.4519

MULLIKEN ATOMIC CHARGES
-----------------------
   0 C :   -0.178484
   1 C :   -0.131732
   2 C :   -0.046743
   3 C :    0.170325
   4 C :   -0.237782
   5 C :   -0.075132
   6 C :   -0.022721
   7 C :    0.180152
   8 N :   -0.302673
   9 C :   -0.228554
  10 C :   -0.087959
  11 C :   -0.288666
  12 C :    0.060558
  13 H :    0.116900
  14 H :    0.236506
  15 H :    0.123331
  16 H :    0.156802
  17 H :    0.114085
  18 H :    0.122330
  19 H :    0.122067
  20 C :    0.233095
  21 N :   -0.144162
  22 O :   -0.114310
  23 C :    0.209438
  24 C :   -0.252659
  25 C :    0.114814
  26 N :   -0.165625
  27 O :   -0.131734
  28 C :    0.299864
  29 C :   -0.268963
  30 H :    0.160634
  31 H :    0.151861
  32 C :   -0.429796
  33 C :    0.206520
  34 C :   -0.065668
  35 C :    0.150840
  36 C :   -0.095127
  37 C :    0.207296
  38 N :   -0.240502
  39 C :    0.197675
  40 C :   -0.350438
  41 N :   -0.242050
  42 C :    0.079126
  43 C :   -0.334722
  44 N :   -0.247472
  45 C :    0.074850
  46 C :   -0.382208
  47 N :   -0.279142
  48 C :    0.130630
  49 C :   -0.367226
  50 C :   -0.374226
  51 C :   -0.379910
  52 C :   -0.332941
  53 C :   -0.345089
  54 H :    0.139496
  55 H :    0.139543
  56 H :    0.126352
  57 H :    0.116192
  58 H :    0.137922
  59 H :    0.126178
  60 H :    0.116561
  61 H :    0.131612
  62 H :    0.146293
  63 H :    0.135529
  64 H :    0.148707
  65 H :    0.135317
  66 H :    0.134683
  67 H :    0.144187
  68 H :    0.166385
  69 H :    0.118748
  70 H :    0.127644
  71 H :    0.141544
  72 H :    0.141731
  73 H :    0.165667
  74 H :    0.135295
  75 H :    0.142499
  76 H :    0.121111
  77 H :    0.125367
  78 H :    0.119261
  79 H :    0.140892
Sum of atomic charges:   -0.0000000

LOEWDIN ATOMIC CHARGES
----------------------
   0 C :   -0.156019
   1 C :   -0.094527
   2 C :   -0.080198
   3 C :   -0.144978
   4 C :   -0.135214
   5 C :   -0.139539
   6 C :   -0.034062
   7 C :   -0.143519
   8 N :    0.201130
   9 C :   -0.123080
  10 C :   -0.142580
  11 C :   -0.109829
  12 C :   -0.080780
  13 H :    0.149177
  14 H :    0.193391
  15 H :    0.146697
  16 H :    0.153377
  17 H :    0.142681
  18 H :    0.144711
  19 H :    0.145053
  20 C :   -0.192565
  21 N :    0.059286
  22 O :    0.308100
  23 C :   -0.227570
  24 C :   -0.115604
  25 C :   -0.225656
  26 N :    0.044181
  27 O :    0.306906
  28 C :   -0.201633
  29 C :   -0.121401
  30 H :    0.147099
  31 H :    0.147967
  32 C :   -0.098043
  33 C :   -0.193933
  34 C :   -0.137182
  35 C :   -0.061284
  36 C :   -0.130700
  37 C :   -0.189492
  38 N :    0.191160
  39 C :   -0.249070
  40 C :   -0.257207
  41 N :    0.173852
  42 C :   -0.273917
  43 C :   -0.263904
  44 N :    0.171337
  45 C :   -0.275585
  46 C :   -0.272315
  47 N :    0.180403
  48 C :   -0.262303
  49 C :   -0.260834
  50 C :   -0.259732
  51 C :   -0.272072
  52 C :   -0.264716
  53 C :   -0.261133
  54 H :    0.132504
  55 H :    0.130387
  56 H :    0.131341
  57 H :    0.127749
  58 H :    0.131579
  59 H :    0.131404
  60 H :    0.127081
  61 H :    0.132293
  62 H :    0.132213
  63 H :    0.134391
  64 H :    0.134914
  65 H :    0.129145
  66 H :    0.129361
  67 H :    0.133049
  68 H :    0.135875
  69 H :    0.127265
  70 H :    0.130182
  71 H :    0.130830
  72 H :    0.132156
  73 H :    0.135756
  74 H :    0.129749
  75 H :    0.131229
  76 H :    0.128095
  77 H :    0.129408
  78 H :    0.144831
  79 H :    0.152880

  Mayer bond orders larger than 0.1
B(  0-C ,  1-C ) :   1.5353 B(  0-C ,  5-C ) :   1.3545 B(  0-C , 19-H ) :   0.9863
B(  1-C ,  2-C ) :   1.2738 B(  1-C , 16-H ) :   0.9326 B(  2-C ,  3-C ) :   1.3616
B(  2-C ,  6-C ) :   1.0641 B(  3-C ,  4-C ) :   1.3035 B(  3-C ,  8-N ) :   1.1164
B(  4-C ,  5-C ) :   1.4805 B(  4-C , 17-H ) :   0.9777 B(  5-C , 18-H ) :   0.9814
B(  6-C ,  7-C ) :   1.3226 B(  6-C , 12-C ) :   1.2460 B(  7-C ,  8-N ) :   1.1563
B(  7-C ,  9-C ) :   1.2901 B(  8-N , 14-H ) :   0.9128 B(  9-C , 10-C ) :   1.4621
B(  9-C , 78-H ) :   0.9740 B( 10-C , 11-C ) :   1.4095 B( 10-C , 15-H ) :   0.9836
B( 11-C , 12-C ) :   1.4381 B( 11-C , 13-H ) :   0.9759 B( 12-C , 28-C ) :   0.9646
B( 20-C , 21-N ) :   1.6512 B( 20-C , 24-C ) :   1.2446 B( 20-C , 35-C ) :   0.8707
B( 21-N , 22-O ) :   0.9851 B( 21-N , 23-C ) :   0.1260 B( 22-O , 23-C ) :   1.2190
B( 23-C , 24-C ) :   1.6102 B( 23-C , 25-C ) :   0.9991 B( 24-C , 31-H ) :   0.9206
B( 25-C , 26-N ) :   1.6712 B( 25-C , 29-C ) :   1.2892 B( 26-N , 27-O ) :   0.9789
B( 26-N , 28-C ) :   0.1278 B( 27-O , 28-C ) :   1.1700 B( 28-C , 29-C ) :   1.6104
B( 29-C , 30-H ) :   0.9205 B( 32-C , 33-C ) :   1.3119 B( 32-C , 36-C ) :   0.1049
B( 32-C , 37-C ) :   1.3259 B( 32-C , 79-H ) :   0.9830 B( 33-C , 34-C ) :   1.3760
B( 33-C , 44-N ) :   1.0064 B( 34-C , 35-C ) :   1.2438 B( 34-C , 47-N ) :   1.0851
B( 35-C , 36-C ) :   1.2504 B( 36-C , 37-C ) :   1.3262 B( 36-C , 38-N ) :   1.1731
B( 37-C , 41-N ) :   1.0228 B( 38-N , 39-C ) :   1.8791 B( 39-C , 40-C ) :   0.9492
B( 39-C , 50-C ) :   0.9457 B( 40-C , 57-H ) :   0.9646 B( 40-C , 58-H ) :   0.9882
B( 40-C , 59-H ) :   0.9606 B( 41-N , 42-C ) :   1.8955 B( 42-C , 43-C ) :   0.9694
B( 42-C , 51-C ) :   0.9450 B( 43-C , 75-H ) :   0.9862 B( 43-C , 76-H ) :   0.9579
B( 43-C , 77-H ) :   0.9631 B( 44-N , 45-C ) :   1.8961 B( 45-C , 46-C ) :   0.9461
B( 45-C , 52-C ) :   0.9724 B( 46-C , 66-H ) :   0.9587 B( 46-C , 67-H ) :   0.9647
B( 46-C , 68-H ) :   0.9739 B( 47-N , 48-C ) :   1.8830 B( 48-C , 49-C ) :   0.9567
B( 48-C , 53-C ) :   0.9520 B( 49-C , 63-H ) :   0.9621 B( 49-C , 64-H ) :   0.9750
B( 49-C , 65-H ) :   0.9535 B( 50-C , 54-H ) :   0.9784 B( 50-C , 55-H ) :   0.9564
B( 50-C , 56-H ) :   0.9611 B( 51-C , 72-H ) :   0.9648 B( 51-C , 73-H ) :   0.9740
B( 51-C , 74-H ) :   0.9592 B( 52-C , 69-H ) :   0.9577 B( 52-C , 70-H ) :   0.9627
B( 52-C , 71-H ) :   0.9853 B( 53-C , 60-H ) :   0.9579 B( 53-C , 61-H ) :   0.9633
B( 53-C , 62-H ) :   0.9889

Dispersion correction           -0.043401124
FINAL SINGLE POINT ENERGY     -1926.660363534511

DIPOLE MOMENT
-------------
                                X             Y             Z
Electronic contribution:     65.04591       2.74767      -0.83673
Nuclear contribution   :    -66.13055      -4.74089       2.36347
                        -----------------------------------------
Total Dipole Moment    :     -1.08464      -1.99322       1.52674
                        -----------------------------------------
Magnitude (a.u.)       :      2.73502
Magnitude (Debye)      :      6.95186

                             ****ORCA TERMINATED NORMALLY****
TOTAL RUN TIME: 0 days 0 hours 26 minutes 26 seconds 870 msec
