                         Program Version 4.0.0 -  RELEASE  -
|  1> #
|  2> !wB97X-D3 def2-TZVP def2/J RIJCOSX Grid5 FinalGrid6 TightSCF
|  3> %pal
|  4>  nprocs 24
|  5> end
|  6> %tddft
|  7>   Mode sTDDFT
|  8>   nroots 2
|  9>   Ethresh 10.0
| 10>   maxcore 5000
| 11>   triplets true
| 12> end
| 13> * xyz 0 1
| 14> C -5.23358339 -2.55107869 1.52780904
| 15> C -4.49886817 -1.48764776 1.00979695
| 16> C -5.17626158 -0.32922564 0.58328451
| 17> C -6.59218903 -0.28471023 0.72219418
| 18> C -7.33539023 -1.35727315 1.23841517
| 19> C -6.63416487 -2.49259735 1.63573113
| 20> C -4.77479188 0.95619165 0.03213719
| 21> C -5.97331225 1.71710127 -0.10619616
| 22> N -7.05025579 0.94876548 0.29373350
| 23> C -5.98991742 3.04368617 -0.56219008
| 24> C -4.76547234 3.62887718 -0.87601193
| 25> C -3.57144078 2.90553395 -0.75795214
| 26> C -3.54269742 1.56590212 -0.32714071
| 27> H -2.63586723 3.38495655 -1.03291225
| 28> H -8.01543458 1.25491348 0.30636539
| 29> H -4.73223878 4.65688761 -1.22498545
| 30> H -3.41819211 -1.56200000 0.94660291
| 31> H -8.41660641 -1.29917401 1.33010811
| 32> H -7.17535139 -3.34307316 2.04150290
| 33> H -4.71459234 -3.44697251 1.85701379
| 34> C 3.48907570 -0.25632722 -0.11730362
| 35> N 3.33799756 1.06609727 0.04459640
| 36> O 2.00231213 1.31680230 -0.00188340
| 37> C 1.32438740 0.17175909 -0.18989369
| 38> C 2.21569971 -0.87993017 -0.27295784
| 39> C -0.12832543 0.23956256 -0.26663816
| 40> N -0.87926932 -0.85620156 -0.45463176
| 41> O -2.17256607 -0.43919003 -0.47355835
| 42> C -2.24185113 0.88878359 -0.29764882
| 43> C -0.95945091 1.39166042 -0.16830125
| 44> H -0.65726846 2.41559532 -0.00482158
| 45> H 1.98767110 -1.92519776 -0.42173876
| 46> S 6.21203452 0.23153385 0.10644446
| 47> C 7.45434009 -1.05160047 0.01359776
| 48> S 6.78031382 -2.69076391 -0.23787692
| 49> C 5.08871904 -2.17945432 -0.27151320
| 50> C 4.81603052 -0.85865204 -0.11683301
| 51> C 8.78478804 -0.80908959 0.12305972
| 52> S 10.02690520 -2.09518464 0.02974278
| 53> C 11.41057139 -1.00767212 0.25123749
| 54> C 11.15668932 0.30563918 0.40605285
| 55> S 9.46250386 0.82840901 0.37443472
| 56> H 4.32054989 -2.93244704 -0.41424808
| 57> H 11.92797247 1.05503631 0.54801584
| 58> H -6.92140348 3.59456485 -0.65646511
| 59> H 12.40850104 -1.43279584 0.25472549
| 60> *
| 61> $new_job
| 62> #
| 63> !wB97X-D3 def2-TZVP def2/J RIJCOSX Grid5 FinalGrid6 TightSCF
| 64> %pal
| 65>  nprocs 24
| 66> end
| 67> %elprop
| 68>    dipole     true
| 69>    quadrupole true
| 70> end
| 71> %tddft
| 72>   Mode sTDDFT
| 73>   nroots 2
| 74>   Ethresh 10.0
| 75>   maxcore 5000
| 76> end
| 77> * xyz 0 1
| 78> C -5.23358339 -2.55107869 1.52780904
| 79> C -4.49886817 -1.48764776 1.00979695
| 80> C -5.17626158 -0.32922564 0.58328451
| 81> C -6.59218903 -0.28471023 0.72219418
| 82> C -7.33539023 -1.35727315 1.23841517
| 83> C -6.63416487 -2.49259735 1.63573113
| 84> C -4.77479188 0.95619165 0.03213719
| 85> C -5.97331225 1.71710127 -0.10619616
| 86> N -7.05025579 0.94876548 0.29373350
| 87> C -5.98991742 3.04368617 -0.56219008
| 88> C -4.76547234 3.62887718 -0.87601193
| 89> C -3.57144078 2.90553395 -0.75795214
| 90> C -3.54269742 1.56590212 -0.32714071
| 91> H -2.63586723 3.38495655 -1.03291225
| 92> H -8.01543458 1.25491348 0.30636539
| 93> H -4.73223878 4.65688761 -1.22498545
| 94> H -3.41819211 -1.56200000 0.94660291
| 95> H -8.41660641 -1.29917401 1.33010811
| 96> H -7.17535139 -3.34307316 2.04150290
| 97> H -4.71459234 -3.44697251 1.85701379
| 98> C 3.48907570 -0.25632722 -0.11730362
| 99> N 3.33799756 1.06609727 0.04459640
|100> O 2.00231213 1.31680230 -0.00188340
|101> C 1.32438740 0.17175909 -0.18989369
|102> C 2.21569971 -0.87993017 -0.27295784
|103> C -0.12832543 0.23956256 -0.26663816
|104> N -0.87926932 -0.85620156 -0.45463176
|105> O -2.17256607 -0.43919003 -0.47355835
|106> C -2.24185113 0.88878359 -0.29764882
|107> C -0.95945091 1.39166042 -0.16830125
|108> H -0.65726846 2.41559532 -0.00482158
|109> H 1.98767110 -1.92519776 -0.42173876
|110> S 6.21203452 0.23153385 0.10644446
|111> C 7.45434009 -1.05160047 0.01359776
|112> S 6.78031382 -2.69076391 -0.23787692
|113> C 5.08871904 -2.17945432 -0.27151320
|114> C 4.81603052 -0.85865204 -0.11683301
|115> C 8.78478804 -0.80908959 0.12305972
|116> S 10.02690520 -2.09518464 0.02974278
|117> C 11.41057139 -1.00767212 0.25123749
|118> C 11.15668932 0.30563918 0.40605285
|119> S 9.46250386 0.82840901 0.37443472
|120> H 4.32054989 -2.93244704 -0.41424808
|121> H 11.92797247 1.05503631 0.54801584
|122> H -6.92140348 3.59456485 -0.65646511
|123> H 12.40850104 -1.43279584 0.25472549
|124> *
|125>
|126>                          ****END OF INPUT****
 Total Charge           Charge          ....    0
 Multiplicity           Mult            ....    1
 Number of Electrons    NEL             ....  258
Dispersion correction           -0.020006842
FINAL SINGLE POINT ENERGY     -2829.854913813071

CARTESIAN COORDINATES (ANGSTROEM)
---------------------------------
  C     -5.233583   -2.551079    1.527809
  C     -4.498868   -1.487648    1.009797
  C     -5.176262   -0.329226    0.583285
  C     -6.592189   -0.284710    0.722194
  C     -7.335390   -1.357273    1.238415
  C     -6.634165   -2.492597    1.635731
  C     -4.774792    0.956192    0.032137
  C     -5.973312    1.717101   -0.106196
  N     -7.050256    0.948765    0.293733
  C     -5.989917    3.043686   -0.562190
  C     -4.765472    3.628877   -0.876012
  C     -3.571441    2.905534   -0.757952
  C     -3.542697    1.565902   -0.327141
  H     -2.635867    3.384957   -1.032912
  H     -8.015435    1.254913    0.306365
  H     -4.732239    4.656888   -1.224985
  H     -3.418192   -1.562000    0.946603
  H     -8.416606   -1.299174    1.330108
  H     -7.175351   -3.343073    2.041503
  H     -4.714592   -3.446973    1.857014
  C      3.489076   -0.256327   -0.117304
  N      3.337998    1.066097    0.044596
  O      2.002312    1.316802   -0.001883
  C      1.324387    0.171759   -0.189894
  C      2.215700   -0.879930   -0.272958
  C     -0.128325    0.239563   -0.266638
  N     -0.879269   -0.856202   -0.454632
  O     -2.172566   -0.439190   -0.473558
  C     -2.241851    0.888784   -0.297649
  C     -0.959451    1.391660   -0.168301
  H     -0.657268    2.415595   -0.004822
  H      1.987671   -1.925198   -0.421739
  S      6.212035    0.231534    0.106444
  C      7.454340   -1.051600    0.013598
  S      6.780314   -2.690764   -0.237877
  C      5.088719   -2.179454   -0.271513
  C      4.816031   -0.858652   -0.116833
  C      8.784788   -0.809090    0.123060
  S     10.026905   -2.095185    0.029743
  C     11.410571   -1.007672    0.251237
  C     11.156689    0.305639    0.406053
  S      9.462504    0.828409    0.374435
  H      4.320550   -2.932447   -0.414248
  H     11.927972    1.055036    0.548016
  H     -6.921403    3.594565   -0.656465
  H     12.408501   -1.432796    0.254725

 Multiplicity           Mult            ....    1
 Number of Electrons    NEL             ....  258
 Basis Dimension        Dim             .... 1125

ORBITAL ENERGIES
----------------

  NO   OCC          E(Eh)            E(eV)
   0   2.0000     -88.988259     -2421.4936
   1   2.0000     -88.982717     -2421.3428
   2   2.0000     -88.982214     -2421.3291
   3   2.0000     -88.981372     -2421.3062
   4   2.0000     -19.344876      -526.4008
   5   2.0000     -19.344614      -526.3937
   6   2.0000     -14.489459      -394.2782
   7   2.0000     -14.487251      -394.2181
   8   2.0000     -14.475021      -393.8854
   9   2.0000     -10.377832      -282.3952
  10   2.0000     -10.373292      -282.2716
  11   2.0000     -10.352994      -281.7193
  12   2.0000     -10.351738      -281.6851
  13   2.0000     -10.350952      -281.6637
  14   2.0000     -10.349094      -281.6132
  15   2.0000     -10.347059      -281.5578
  16   2.0000     -10.339630      -281.3556
  17   2.0000     -10.338360      -281.3211
  18   2.0000     -10.331438      -281.1327
  19   2.0000     -10.329839      -281.0892
  20   2.0000     -10.329037      -281.0674
  21   2.0000     -10.322641      -280.8933
  22   2.0000     -10.308347      -280.5044
  23   2.0000     -10.308343      -280.5043
  24   2.0000     -10.304340      -280.3953
  25   2.0000     -10.301446      -280.3166
  26   2.0000     -10.298657      -280.2407
  27   2.0000     -10.296545      -280.1832
  28   2.0000     -10.295591      -280.1573
  29   2.0000     -10.290247      -280.0119
  30   2.0000     -10.288946      -279.9764
  31   2.0000     -10.286591      -279.9124
  32   2.0000     -10.277842      -279.6743
  33   2.0000      -8.084436      -219.9887
  34   2.0000      -8.079090      -219.8432
  35   2.0000      -8.078526      -219.8279
  36   2.0000      -8.077512      -219.8003
  37   2.0000      -6.038577      -164.3180
  38   2.0000      -6.034226      -164.1996
  39   2.0000      -6.033290      -164.1742
  40   2.0000      -6.032717      -164.1586
  41   2.0000      -6.031798      -164.1336
  42   2.0000      -6.029839      -164.0803
  43   2.0000      -6.028902      -164.0548
  44   2.0000      -6.028314      -164.0388
  45   2.0000      -6.027437      -164.0149
  46   2.0000      -6.024417      -163.9327
  47   2.0000      -6.023854      -163.9174
  48   2.0000      -6.022583      -163.8828
  49   2.0000      -1.293879       -35.2082
  50   2.0000      -1.291105       -35.1328
  51   2.0000      -1.112426       -30.2707
  52   2.0000      -1.025915       -27.9166
  53   2.0000      -1.013760       -27.5858
  54   2.0000      -1.002252       -27.2727
  55   2.0000      -0.987793       -26.8792
  56   2.0000      -0.978083       -26.6150
  57   2.0000      -0.969729       -26.3877
  58   2.0000      -0.941669       -25.6241
  59   2.0000      -0.925636       -25.1878
  60   2.0000      -0.908126       -24.7114
  61   2.0000      -0.906807       -24.6755
  62   2.0000      -0.884542       -24.0696
  63   2.0000      -0.877250       -23.8712
  64   2.0000      -0.869812       -23.6688
  65   2.0000      -0.851780       -23.1781
  66   2.0000      -0.845985       -23.0204
  67   2.0000      -0.842043       -22.9131
  68   2.0000      -0.783795       -21.3281
  69   2.0000      -0.778570       -21.1860
  70   2.0000      -0.765740       -20.8368
  71   2.0000      -0.754579       -20.5331
  72   2.0000      -0.731528       -19.9059
  73   2.0000      -0.724794       -19.7227
  74   2.0000      -0.719416       -19.5763
  75   2.0000      -0.710314       -19.3286
  76   2.0000      -0.696349       -18.9486
  77   2.0000      -0.682022       -18.5588
  78   2.0000      -0.669591       -18.2205
  79   2.0000      -0.650279       -17.6950
  80   2.0000      -0.636650       -17.3241
  81   2.0000      -0.631865       -17.1939
  82   2.0000      -0.620770       -16.8920
  83   2.0000      -0.618397       -16.8274
  84   2.0000      -0.613668       -16.6988
  85   2.0000      -0.605159       -16.4672
  86   2.0000      -0.598863       -16.2959
  87   2.0000      -0.596796       -16.2396
  88   2.0000      -0.577567       -15.7164
  89   2.0000      -0.570822       -15.5328
  90   2.0000      -0.567860       -15.4523
  91   2.0000      -0.560552       -15.2534
  92   2.0000      -0.552856       -15.0440
  93   2.0000      -0.544257       -14.8100
  94   2.0000      -0.537380       -14.6229
  95   2.0000      -0.534535       -14.5454
  96   2.0000      -0.528486       -14.3808
  97   2.0000      -0.524530       -14.2732
  98   2.0000      -0.517786       -14.0897
  99   2.0000      -0.516939       -14.0666
 100   2.0000      -0.509350       -13.8601
 101   2.0000      -0.504117       -13.7177
 102   2.0000      -0.496280       -13.5045
 103   2.0000      -0.487896       -13.2763
 104   2.0000      -0.477951       -13.0057
 105   2.0000      -0.476459       -12.9651
 106   2.0000      -0.473300       -12.8792
 107   2.0000      -0.472523       -12.8580
 108   2.0000      -0.465317       -12.6619
 109   2.0000      -0.450778       -12.2663
 110   2.0000      -0.449429       -12.2296
 111   2.0000      -0.444331       -12.0909
 112   2.0000      -0.439772       -11.9668
 113   2.0000      -0.437462       -11.9039
 114   2.0000      -0.431173       -11.7328
 115   2.0000      -0.420590       -11.4448
 116   2.0000      -0.418995       -11.4014
 117   2.0000      -0.404309       -11.0018
 118   2.0000      -0.397021       -10.8035
 119   2.0000      -0.394405       -10.7323
 120   2.0000      -0.379818       -10.3354
 121   2.0000      -0.376892       -10.2558
 122   2.0000      -0.366822        -9.9817
 123   2.0000      -0.348083        -9.4718
 124   2.0000      -0.337618        -9.1871
 125   2.0000      -0.322855        -8.7853
 126   2.0000      -0.305788        -8.3209
 127   2.0000      -0.294721        -8.0198
 128   2.0000      -0.249209        -6.7813
 129   0.0000      -0.005059        -0.1376
 130   0.0000       0.010140         0.2759
 131   0.0000       0.027333         0.7438
 132   0.0000       0.034432         0.9369
 133   0.0000       0.046497         1.2652

MULLIKEN ATOMIC CHARGES
-----------------------
   0 C :   -0.173096
   1 C :   -0.132025
   2 C :   -0.035538
   3 C :    0.169278
   4 C :   -0.236255
   5 C :   -0.081916
   6 C :   -0.019620
   7 C :    0.176982
   8 N :   -0.301360
   9 C :   -0.226620
  10 C :   -0.082412
  11 C :   -0.284244
  12 C :    0.056845
  13 H :    0.126030
  14 H :    0.237809
  15 H :    0.127510
  16 H :    0.147536
  17 H :    0.116084
  18 H :    0.124199
  19 H :    0.120551
  20 C :    0.322255
  21 N :   -0.170308
  22 O :   -0.123585
  23 C :    0.208244
  24 C :   -0.289157
  25 C :    0.147108
  26 N :   -0.177931
  27 O :   -0.128739
  28 C :    0.306584
  29 C :   -0.265805
  30 H :    0.179697
  31 H :    0.172747
  32 S :    0.030614
  33 C :    0.089265
  34 S :    0.033643
  35 C :   -0.158167
  36 C :   -0.148860
  37 C :   -0.128661
  38 S :    0.012891
  39 C :   -0.183433
  40 C :   -0.187646
  41 S :    0.018295
  42 H :    0.162520
  43 H :    0.163985
  44 H :    0.120805
  45 H :    0.163901
Sum of atomic charges:   -0.0000000

LOEWDIN ATOMIC CHARGES
----------------------
   0 C :   -0.156357
   1 C :   -0.097090
   2 C :   -0.080680
   3 C :   -0.144117
   4 C :   -0.133302
   5 C :   -0.138375
   6 C :   -0.034257
   7 C :   -0.143010
   8 N :    0.202274
   9 C :   -0.119564
  10 C :   -0.139472
  11 C :   -0.106330
  12 C :   -0.082743
  13 H :    0.151079
  14 H :    0.194133
  15 H :    0.148058
  16 H :    0.151584
  17 H :    0.143377
  18 H :    0.145318
  19 H :    0.144697
  20 C :   -0.255738
  21 N :    0.036836
  22 O :    0.303382
  23 C :   -0.214754
  24 C :   -0.103631
  25 C :   -0.227572
  26 N :    0.038875
  27 O :    0.311828
  28 C :   -0.196379
  29 C :   -0.116436
  30 H :    0.153299
  31 H :    0.152966
  32 S :    0.664390
  33 C :   -0.633930
  34 S :    0.623522
  35 C :   -0.368351
  36 C :   -0.369217
  37 C :   -0.632101
  38 S :    0.604931
  39 C :   -0.424579
  40 C :   -0.423718
  41 S :    0.610761
  42 H :    0.140699
  43 H :    0.137050
  44 H :    0.145850
  45 H :    0.136793

  Mayer bond orders larger than 0.1
B(  0-C ,  1-C ) :   1.5360 B(  0-C ,  5-C ) :   1.3537 B(  0-C , 19-H ) :   0.9867
B(  1-C ,  2-C ) :   1.2691 B(  1-C , 16-H ) :   0.9379 B(  2-C ,  3-C ) :   1.3595
B(  2-C ,  6-C ) :   1.0722 B(  3-C ,  4-C ) :   1.3049 B(  3-C ,  8-N ) :   1.1184
B(  4-C ,  5-C ) :   1.4836 B(  4-C , 17-H ) :   0.9764 B(  5-C , 18-H ) :   0.9809
B(  6-C ,  7-C ) :   1.3247 B(  6-C , 12-C ) :   1.2425 B(  7-C ,  8-N ) :   1.1577
B(  7-C ,  9-C ) :   1.2890 B(  8-N , 14-H ) :   0.9114 B(  9-C , 10-C ) :   1.4620
B(  9-C , 44-H ) :   0.9734 B( 10-C , 11-C ) :   1.4088 B( 10-C , 15-H ) :   0.9821
B( 11-C , 12-C ) :   1.4431 B( 11-C , 13-H ) :   0.9703 B( 12-C , 28-C ) :   0.9653
B( 20-C , 21-N ) :   1.6255 B( 20-C , 24-C ) :   1.2863 B( 20-C , 32-S ) :  -0.1381
B( 20-C , 36-C ) :   0.8653 B( 21-N , 22-O ) :   0.9841 B( 21-N , 23-C ) :   0.1157
B( 22-O , 23-C ) :   1.1899 B( 23-C , 24-C ) :   1.6746 B( 23-C , 25-C ) :   0.9808
B( 24-C , 31-H ) :   0.9057 B( 25-C , 26-N ) :   1.6522 B( 25-C , 29-C ) :   1.2870
B( 26-N , 27-O ) :   0.9951 B( 26-N , 28-C ) :   0.1257 B( 27-O , 28-C ) :   1.1679
B( 28-C , 29-C ) :   1.5979 B( 29-C , 30-H ) :   0.9163 B( 32-S , 33-C ) :   1.1257
B( 32-S , 36-C ) :   1.2454 B( 33-C , 34-S ) :   1.0923 B( 33-C , 37-C ) :   1.5499
B( 34-S , 35-C ) :   1.1736 B( 35-C , 36-C ) :   1.7863 B( 35-C , 42-H ) :   0.9303
B( 37-C , 38-S ) :   1.1869 B( 37-C , 41-S ) :   1.1725 B( 38-S , 39-C ) :   1.1237
B( 39-C , 40-C ) :   1.8852 B( 39-C , 45-H ) :   0.9338 B( 40-C , 41-S ) :   1.1286
B( 40-C , 43-H ) :   0.9344

Dispersion correction           -0.020006842
FINAL SINGLE POINT ENERGY     -2829.854913767682

DIPOLE MOMENT
-------------
                                X             Y             Z
Electronic contribution:     34.23837      -1.93798      -2.24157
Nuclear contribution   :    -35.71241       2.29166       2.29244
                        -----------------------------------------
Total Dipole Moment    :     -1.47404       0.35368       0.05087
                        -----------------------------------------
Magnitude (a.u.)       :      1.51673
Magnitude (Debye)      :      3.85523

                             ****ORCA TERMINATED NORMALLY****
TOTAL RUN TIME: 0 days 0 hours 11 minutes 5 seconds 497 msec
