                         Program Version 4.0.0 -  RELEASE  -
|  1> #
|  2> !wB97X-D3 def2-TZVP def2/J RIJCOSX Grid5 FinalGrid6 TightSCF
|  3> %pal
|  4>  nprocs 24
|  5> end
|  6> %tddft
|  7>   Mode sTDDFT
|  8>   nroots 2
|  9>   Ethresh 10.0
| 10>   maxcore 5000
| 11>   triplets true
| 12> end
| 13> * xyz 0 1
| 14> C -5.29946575 2.96521058 -1.51440560
| 15> C -4.86946461 1.83313755 -0.82680037
| 16> C -5.80619892 0.83895691 -0.48766785
| 17> C -7.17332392 1.05472514 -0.82088456
| 18> C -7.60881534 2.19207032 -1.51826461
| 19> C -6.64948343 3.13932687 -1.86686920
| 20> C -5.75056267 -0.42330384 0.23205861
| 21> C -7.09711954 -0.87945916 0.33357695
| 22> N -7.92917925 0.00584354 -0.32774387
| 23> C -7.45697847 -2.04273314 1.03055026
| 24> C -6.43686046 -2.75594472 1.65654585
| 25> C -5.10117895 -2.34278818 1.55730403
| 26> C -4.72422996 -1.19736114 0.83264796
| 27> H -4.32359867 -2.93529547 2.03068905
| 28> H -8.93646137 -0.07499792 -0.39325929
| 29> H -6.67506309 -3.65495159 2.21803148
| 30> H -3.82403346 1.74066944 -0.54681511
| 31> H -8.65738660 2.33192932 -1.76686777
| 32> H -6.94979395 4.03368693 -2.40607684
| 33> H -4.57919009 3.73388308 -1.78005502
| 34> S 1.85276536 -0.49232436 0.34236230
| 35> C 2.63926328 -0.02792114 -1.17469427
| 36> N 1.78554382 0.18061472 -2.17267780
| 37> N 0.48164246 -0.00802344 -1.81595135
| 38> C 0.32442167 -0.36125516 -0.54568781
| 39> C -0.95878837 -0.61713052 0.06716989
| 40> N -1.11523124 -0.96288785 1.33764389
| 41> N -2.42410802 -1.15389097 1.68864403
| 42> C -3.28227474 -0.92966061 0.70444590
| 43> S -2.48422796 -0.48578005 -0.82048548
| 44> S 12.14678414 0.13079127 0.73430259
| 45> C 10.37176395 0.01897046 0.68367488
| 46> C 9.71916327 -0.33304912 1.82023727
| 47> S 10.68660452 -0.65697615 3.27782590
| 48> C 12.33534246 -0.33417886 2.51145414
| 49> S 7.94825991 -0.44236525 1.76134352
| 50> C 7.82875750 0.01440816 0.03269670
| 51> S 9.39954874 0.34065785 -0.76688860
| 52> C 6.64073547 0.10550952 -0.61800430
| 53> S 6.50310461 0.55976728 -2.34210610
| 54> C 4.74812070 0.45572142 -2.41711883
| 55> C 4.07727437 0.10363047 -1.28514373
| 56> S 5.06572685 -0.21721937 0.16725312
| 57> H 12.96308280 -1.22917852 2.59458180
| 58> H 12.84276189 0.47301670 3.05270699
| 59> H -8.49250515 -2.36579086 1.08992094
| 60> H 4.24475622 0.67203987 -3.35369970
| 61> *
| 62> $new_job
| 63> #
| 64> !wB97X-D3 def2-TZVP def2/J RIJCOSX Grid5 FinalGrid6 TightSCF
| 65> %pal
| 66>  nprocs 24
| 67> end
| 68> %elprop
| 69>    dipole     true
| 70>    quadrupole true
| 71> end
| 72> %tddft
| 73>   Mode sTDDFT
| 74>   nroots 2
| 75>   Ethresh 10.0
| 76>   maxcore 5000
| 77> end
| 78> * xyz 0 1
| 79> C -5.29946575 2.96521058 -1.51440560
| 80> C -4.86946461 1.83313755 -0.82680037
| 81> C -5.80619892 0.83895691 -0.48766785
| 82> C -7.17332392 1.05472514 -0.82088456
| 83> C -7.60881534 2.19207032 -1.51826461
| 84> C -6.64948343 3.13932687 -1.86686920
| 85> C -5.75056267 -0.42330384 0.23205861
| 86> C -7.09711954 -0.87945916 0.33357695
| 87> N -7.92917925 0.00584354 -0.32774387
| 88> C -7.45697847 -2.04273314 1.03055026
| 89> C -6.43686046 -2.75594472 1.65654585
| 90> C -5.10117895 -2.34278818 1.55730403
| 91> C -4.72422996 -1.19736114 0.83264796
| 92> H -4.32359867 -2.93529547 2.03068905
| 93> H -8.93646137 -0.07499792 -0.39325929
| 94> H -6.67506309 -3.65495159 2.21803148
| 95> H -3.82403346 1.74066944 -0.54681511
| 96> H -8.65738660 2.33192932 -1.76686777
| 97> H -6.94979395 4.03368693 -2.40607684
| 98> H -4.57919009 3.73388308 -1.78005502
| 99> S 1.85276536 -0.49232436 0.34236230
|100> C 2.63926328 -0.02792114 -1.17469427
|101> N 1.78554382 0.18061472 -2.17267780
|102> N 0.48164246 -0.00802344 -1.81595135
|103> C 0.32442167 -0.36125516 -0.54568781
|104> C -0.95878837 -0.61713052 0.06716989
|105> N -1.11523124 -0.96288785 1.33764389
|106> N -2.42410802 -1.15389097 1.68864403
|107> C -3.28227474 -0.92966061 0.70444590
|108> S -2.48422796 -0.48578005 -0.82048548
|109> S 12.14678414 0.13079127 0.73430259
|110> C 10.37176395 0.01897046 0.68367488
|111> C 9.71916327 -0.33304912 1.82023727
|112> S 10.68660452 -0.65697615 3.27782590
|113> C 12.33534246 -0.33417886 2.51145414
|114> S 7.94825991 -0.44236525 1.76134352
|115> C 7.82875750 0.01440816 0.03269670
|116> S 9.39954874 0.34065785 -0.76688860
|117> C 6.64073547 0.10550952 -0.61800430
|118> S 6.50310461 0.55976728 -2.34210610
|119> C 4.74812070 0.45572142 -2.41711883
|120> C 4.07727437 0.10363047 -1.28514373
|121> S 5.06572685 -0.21721937 0.16725312
|122> H 12.96308280 -1.22917852 2.59458180
|123> H 12.84276189 0.47301670 3.05270699
|124> H -8.49250515 -2.36579086 1.08992094
|125> H 4.24475622 0.67203987 -3.35369970
|126> *
|127>
|128>                          ****END OF INPUT****
 Total Charge           Charge          ....    0
 Multiplicity           Mult            ....    1
 Number of Electrons    NEL             ....  312
Dispersion correction           -0.021863566
FINAL SINGLE POINT ENERGY     -4342.422590846892

CARTESIAN COORDINATES (ANGSTROEM)
---------------------------------
  C     -5.299466    2.965211   -1.514406
  C     -4.869465    1.833138   -0.826800
  C     -5.806199    0.838957   -0.487668
  C     -7.173324    1.054725   -0.820885
  C     -7.608815    2.192070   -1.518265
  C     -6.649483    3.139327   -1.866869
  C     -5.750563   -0.423304    0.232059
  C     -7.097120   -0.879459    0.333577
  N     -7.929179    0.005844   -0.327744
  C     -7.456978   -2.042733    1.030550
  C     -6.436860   -2.755945    1.656546
  C     -5.101179   -2.342788    1.557304
  C     -4.724230   -1.197361    0.832648
  H     -4.323599   -2.935295    2.030689
  H     -8.936461   -0.074998   -0.393259
  H     -6.675063   -3.654952    2.218031
  H     -3.824033    1.740669   -0.546815
  H     -8.657387    2.331929   -1.766868
  H     -6.949794    4.033687   -2.406077
  H     -4.579190    3.733883   -1.780055
  S      1.852765   -0.492324    0.342362
  C      2.639263   -0.027921   -1.174694
  N      1.785544    0.180615   -2.172678
  N      0.481642   -0.008023   -1.815951
  C      0.324422   -0.361255   -0.545688
  C     -0.958788   -0.617131    0.067170
  N     -1.115231   -0.962888    1.337644
  N     -2.424108   -1.153891    1.688644
  C     -3.282275   -0.929661    0.704446
  S     -2.484228   -0.485780   -0.820485
  S     12.146784    0.130791    0.734303
  C     10.371764    0.018970    0.683675
  C      9.719163   -0.333049    1.820237
  S     10.686605   -0.656976    3.277826
  C     12.335342   -0.334179    2.511454
  S      7.948260   -0.442365    1.761344
  C      7.828758    0.014408    0.032697
  S      9.399549    0.340658   -0.766889
  C      6.640735    0.105510   -0.618004
  S      6.503105    0.559767   -2.342106
  C      4.748121    0.455721   -2.417119
  C      4.077274    0.103630   -1.285144
  S      5.065727   -0.217219    0.167253
  H     12.963083   -1.229179    2.594582
  H     12.842762    0.473017    3.052707
  H     -8.492505   -2.365791    1.089921
  H      4.244756    0.672040   -3.353700

 Multiplicity           Mult            ....    1
 Number of Electrons    NEL             ....  312
 Basis Dimension        Dim             .... 1230

ORBITAL ENERGIES
----------------

  NO   OCC          E(Eh)            E(eV)
   0   2.0000     -89.017284     -2422.2835
   1   2.0000     -89.009690     -2422.0768
   2   2.0000     -89.002591     -2421.8836
   3   2.0000     -89.000078     -2421.8153
   4   2.0000     -88.999896     -2421.8103
   5   2.0000     -88.998950     -2421.7845
   6   2.0000     -88.987512     -2421.4733
   7   2.0000     -88.987382     -2421.4698
   8   2.0000     -14.480320      -394.0295
   9   2.0000     -14.476185      -393.9170
  10   2.0000     -14.474350      -393.8671
  11   2.0000     -14.474342      -393.8669
  12   2.0000     -14.466150      -393.6440
  13   2.0000     -10.387454      -282.6570
  14   2.0000     -10.384992      -282.5900
  15   2.0000     -10.380856      -282.4774
  16   2.0000     -10.375258      -282.3251
  17   2.0000     -10.369989      -282.1818
  18   2.0000     -10.369141      -282.1587
  19   2.0000     -10.368313      -282.1361
  20   2.0000     -10.363476      -282.0045
  21   2.0000     -10.362741      -281.9845
  22   2.0000     -10.359188      -281.8878
  23   2.0000     -10.351835      -281.6878
  24   2.0000     -10.337901      -281.3086
  25   2.0000     -10.333963      -281.2014
  26   2.0000     -10.320773      -280.8425
  27   2.0000     -10.307877      -280.4916
  28   2.0000     -10.300661      -280.2952
  29   2.0000     -10.298792      -280.2444
  30   2.0000     -10.296054      -280.1699
  31   2.0000     -10.293333      -280.0958
  32   2.0000     -10.292464      -280.0722
  33   2.0000     -10.291986      -280.0592
  34   2.0000     -10.291769      -280.0533
  35   2.0000     -10.282177      -279.7923
  36   2.0000      -8.113384      -220.7764
  37   2.0000      -8.105959      -220.5744
  38   2.0000      -8.098733      -220.3777
  39   2.0000      -8.095953      -220.3021
  40   2.0000      -8.095758      -220.2968
  41   2.0000      -8.095444      -220.2882
  42   2.0000      -8.083916      -219.9745
  43   2.0000      -8.083786      -219.9710
  44   2.0000      -6.066495      -165.0777
  45   2.0000      -6.062515      -164.9694
  46   2.0000      -6.060496      -164.9145
  47   2.0000      -6.059048      -164.8751
  48   2.0000      -6.055062      -164.7666
  49   2.0000      -6.053067      -164.7123
  50   2.0000      -6.052872      -164.7070
  51   2.0000      -6.050282      -164.6366
  52   2.0000      -6.050093      -164.6314
  53   2.0000      -6.049661      -164.6197
  54   2.0000      -6.048424      -164.5860
  55   2.0000      -6.046113      -164.5231
  56   2.0000      -6.045905      -164.5174
  57   2.0000      -6.045407      -164.5039
  58   2.0000      -6.044234      -164.4720
  59   2.0000      -6.040785      -164.3781
  60   2.0000      -6.040599      -164.3731
  61   2.0000      -6.040513      -164.3707
  62   2.0000      -6.038526      -164.3166
  63   2.0000      -6.038399      -164.3132
  64   2.0000      -6.034257      -164.2005
  65   2.0000      -6.034123      -164.1968
  66   2.0000      -6.028148      -164.0342
  67   2.0000      -6.028015      -164.0306
  68   2.0000      -1.162215       -31.6255
  69   2.0000      -1.151599       -31.3366
  70   2.0000      -1.113341       -30.2956
  71   2.0000      -1.035018       -28.1643
  72   2.0000      -1.019611       -27.7450
  73   2.0000      -0.996247       -27.1093
  74   2.0000      -0.983237       -26.7552
  75   2.0000      -0.973780       -26.4979
  76   2.0000      -0.970419       -26.4064
  77   2.0000      -0.952244       -25.9119
  78   2.0000      -0.938920       -25.5493
  79   2.0000      -0.920767       -25.0553
  80   2.0000      -0.911100       -24.7923
  81   2.0000      -0.908014       -24.7083
  82   2.0000      -0.903747       -24.5922
  83   2.0000      -0.890757       -24.2387
  84   2.0000      -0.879063       -23.9205
  85   2.0000      -0.853753       -23.2318
  86   2.0000      -0.849621       -23.1194
  87   2.0000      -0.848591       -23.0913
  88   2.0000      -0.846992       -23.0478
  89   2.0000      -0.792566       -21.5668
  90   2.0000      -0.780338       -21.2341
  91   2.0000      -0.769922       -20.9506
  92   2.0000      -0.752291       -20.4709
  93   2.0000      -0.731322       -19.9003
  94   2.0000      -0.727785       -19.8040
  95   2.0000      -0.724512       -19.7150
  96   2.0000      -0.720433       -19.6040
  97   2.0000      -0.693169       -18.8621
  98   2.0000      -0.677461       -18.4347
  99   2.0000      -0.667855       -18.1732
 100   2.0000      -0.652146       -17.7458
 101   2.0000      -0.647877       -17.6296
 102   2.0000      -0.638738       -17.3809
 103   2.0000      -0.631007       -17.1706
 104   2.0000      -0.620609       -16.8876
 105   2.0000      -0.615447       -16.7472
 106   2.0000      -0.580534       -15.7971
 107   2.0000      -0.577942       -15.7266
 108   2.0000      -0.576586       -15.6897
 109   2.0000      -0.570917       -15.5354
 110   2.0000      -0.563884       -15.3441
 111   2.0000      -0.562675       -15.3112
 112   2.0000      -0.556217       -15.1354
 113   2.0000      -0.551936       -15.0189
 114   2.0000      -0.549550       -14.9540
 115   2.0000      -0.547201       -14.8901
 116   2.0000      -0.545942       -14.8558
 117   2.0000      -0.541239       -14.7279
 118   2.0000      -0.538764       -14.6605
 119   2.0000      -0.531042       -14.4504
 120   2.0000      -0.529488       -14.4081
 121   2.0000      -0.525682       -14.3045
 122   2.0000      -0.522104       -14.2072
 123   2.0000      -0.503156       -13.6916
 124   2.0000      -0.502426       -13.6717
 125   2.0000      -0.498505       -13.5650
 126   2.0000      -0.488118       -13.2824
 127   2.0000      -0.475253       -12.9323
 128   2.0000      -0.474361       -12.9080
 129   2.0000      -0.472180       -12.8487
 130   2.0000      -0.468895       -12.7593
 131   2.0000      -0.458463       -12.4754
 132   2.0000      -0.457532       -12.4501
 133   2.0000      -0.453114       -12.3298
 134   2.0000      -0.447232       -12.1698
 135   2.0000      -0.443238       -12.0611
 136   2.0000      -0.432995       -11.7824
 137   2.0000      -0.427555       -11.6344
 138   2.0000      -0.421971       -11.4824
 139   2.0000      -0.419595       -11.4178
 140   2.0000      -0.413785       -11.2597
 141   2.0000      -0.407536       -11.0896
 142   2.0000      -0.406292       -11.0558
 143   2.0000      -0.394783       -10.7426
 144   2.0000      -0.390687       -10.6311
 145   2.0000      -0.385748       -10.4967
 146   2.0000      -0.381583       -10.3834
 147   2.0000      -0.374941       -10.2027
 148   2.0000      -0.371856       -10.1187
 149   2.0000      -0.360991        -9.8231
 150   2.0000      -0.352389        -9.5890
 151   2.0000      -0.334442        -9.1006
 152   2.0000      -0.307168        -8.3585
 153   2.0000      -0.300125        -8.1668
 154   2.0000      -0.295062        -8.0291
 155   2.0000      -0.256266        -6.9734
 156   0.0000      -0.038493        -1.0475
 157   0.0000      -0.002987        -0.0813
 158   0.0000       0.009422         0.2564
 159   0.0000       0.023290         0.6338
 160   0.0000       0.038654         1.0518

MULLIKEN ATOMIC CHARGES
-----------------------
   0 C :   -0.172960
   1 C :   -0.134444
   2 C :   -0.017489
   3 C :    0.166933
   4 C :   -0.236489
   5 C :   -0.079662
   6 C :   -0.047264
   7 C :    0.181900
   8 N :   -0.298796
   9 C :   -0.231961
  10 C :   -0.060798
  11 C :   -0.287224
  12 C :    0.164020
  13 H :    0.148089
  14 H :    0.238361
  15 H :    0.129543
  16 H :    0.140803
  17 H :    0.117759
  18 H :    0.126149
  19 H :    0.122591
  20 S :    0.075724
  21 C :    0.193409
  22 N :   -0.153816
  23 N :   -0.163997
  24 C :    0.094112
  25 C :    0.121883
  26 N :   -0.169432
  27 N :   -0.152300
  28 C :    0.070032
  29 S :    0.065154
  30 S :   -0.021395
  31 C :   -0.028496
  32 C :   -0.037543
  33 S :   -0.018922
  34 C :   -0.224852
  35 S :    0.011962
  36 C :   -0.120055
  37 S :    0.013886
  38 C :    0.090447
  39 S :    0.053141
  40 C :   -0.147675
  41 C :   -0.131761
  42 S :   -0.013506
  43 H :    0.153511
  44 H :    0.153649
  45 H :    0.121347
  46 H :    0.196431
Sum of atomic charges:   -0.0000000

LOEWDIN ATOMIC CHARGES
----------------------
   0 C :   -0.154805
   1 C :   -0.113519
   2 C :   -0.086390
   3 C :   -0.143496
   4 C :   -0.130247
   5 C :   -0.137473
   6 C :   -0.045994
   7 C :   -0.143209
   8 N :    0.202288
   9 C :   -0.118409
  10 C :   -0.136761
  11 C :   -0.097186
  12 C :   -0.115535
  13 H :    0.156336
  14 H :    0.194316
  15 H :    0.148441
  16 H :    0.140840
  17 H :    0.144149
  18 H :    0.146003
  19 H :    0.145488
  20 S :    0.740648
  21 C :   -0.443075
  22 N :    0.042327
  23 N :    0.049719
  24 C :   -0.455378
  25 C :   -0.463867
  26 N :    0.046816
  27 N :    0.049979
  28 C :   -0.382407
  29 S :    0.757282
  30 S :    0.532762
  31 C :   -0.661408
  32 C :   -0.661323
  33 S :    0.533575
  34 C :   -0.595928
  35 S :    0.628490
  36 C :   -0.621313
  37 S :    0.625854
  38 C :   -0.629249
  39 S :    0.646176
  40 C :   -0.345628
  41 C :   -0.414093
  42 S :    0.639347
  43 H :    0.114337
  44 H :    0.114365
  45 H :    0.145736
  46 H :    0.151420

  Mayer bond orders larger than 0.1
B(  0-C ,  1-C ) :   1.5360 B(  0-C ,  5-C ) :   1.3590 B(  0-C , 19-H ) :   0.9831
B(  1-C ,  2-C ) :   1.2525 B(  1-C , 16-H ) :   0.9341 B(  2-C ,  3-C ) :   1.3918
B(  2-C ,  6-C ) :   1.0762 B(  3-C ,  4-C ) :   1.3090 B(  3-C ,  8-N ) :   1.1251
B(  4-C ,  5-C ) :   1.4844 B(  4-C , 17-H ) :   0.9754 B(  5-C , 18-H ) :   0.9799
B(  6-C ,  7-C ) :   1.3386 B(  6-C , 12-C ) :   1.2105 B(  7-C ,  8-N ) :   1.1515
B(  7-C ,  9-C ) :   1.2892 B(  8-N , 14-H ) :   0.9114 B(  9-C , 10-C ) :   1.4577
B(  9-C , 45-H ) :   0.9717 B( 10-C , 11-C ) :   1.3839 B( 10-C , 15-H ) :   0.9823
B( 11-C , 12-C ) :   1.4629 B( 11-C , 13-H ) :   0.9591 B( 12-C , 28-C ) :   0.8799
B( 20-S , 21-C ) :   1.2902 B( 20-S , 24-C ) :   1.2995 B( 21-C , 22-N ) :   1.6705
B( 21-C , 41-C ) :   0.9480 B( 22-N , 23-N ) :   1.1681 B( 23-N , 24-C ) :   1.7077
B( 24-C , 25-C ) :   0.9308 B( 25-C , 26-N ) :   1.7203 B( 25-C , 29-S ) :   1.2875
B( 26-N , 27-N ) :   1.1597 B( 27-N , 28-C ) :   1.6960 B( 28-C , 29-S ) :   1.2545
B( 30-S , 31-C ) :   1.0912 B( 30-S , 34-C ) :   1.0259 B( 31-C , 32-C ) :   1.7594
B( 31-C , 37-S ) :   1.1080 B( 32-C , 33-S ) :   1.0957 B( 32-C , 35-S ) :   1.1105
B( 33-S , 34-C ) :   1.0250 B( 34-C , 43-H ) :   0.9499 B( 34-C , 44-H ) :   0.9501
B( 35-S , 36-C ) :   1.1674 B( 36-C , 37-S ) :   1.1720 B( 36-C , 38-C ) :   1.5341
B( 38-C , 39-S ) :   1.0864 B( 38-C , 42-S ) :   1.1282 B( 39-S , 40-C ) :   1.1950
B( 40-C , 41-C ) :   1.7878 B( 40-C , 46-H ) :   0.9001 B( 41-C , 42-S ) :   1.1637

Dispersion correction           -0.021863566
FINAL SINGLE POINT ENERGY     -4342.422590853801

DIPOLE MOMENT
-------------
                                X             Y             Z
Electronic contribution:     42.46239      -3.54475      -0.06365
Nuclear contribution   :    -43.17969       3.55772      -0.02044
                        -----------------------------------------
Total Dipole Moment    :     -0.71730       0.01297      -0.08409
                        -----------------------------------------
Magnitude (a.u.)       :      0.72233
Magnitude (Debye)      :      1.83601

                             ****ORCA TERMINATED NORMALLY****
TOTAL RUN TIME: 0 days 0 hours 15 minutes 42 seconds 924 msec
