                         Program Version 4.0.0 -  RELEASE  -
|  1> #
|  2> !wB97X-D3 def2-TZVP def2/J RIJCOSX Grid5 FinalGrid6 TightSCF
|  3> %pal
|  4>  nprocs 24
|  5> end
|  6> %tddft
|  7>   Mode sTDDFT
|  8>   nroots 2
|  9>   Ethresh 10.0
| 10>   maxcore 5000
| 11>   triplets true
| 12> end
| 13> * xyz 0 1
| 14> C -5.51581086 2.89787280 1.16217996
| 15> C -4.68429351 1.83071854 0.83255291
| 16> C -5.24310849 0.68555762 0.23321621
| 17> C -6.64125967 0.67632768 -0.03328464
| 18> C -7.48224918 1.74808846 0.30322376
| 19> C -6.89807963 2.85760060 0.90842353
| 20> C -4.71954077 -0.57744450 -0.26471137
| 21> C -5.83149378 -1.26946059 -0.82996774
| 22> N -6.97402137 -0.51015666 -0.66316154
| 23> C -5.71616226 -2.51561779 -1.46388499
| 24> C -4.44448213 -3.07822714 -1.54492094
| 25> C -3.33355886 -2.42696079 -0.99303529
| 26> C -3.43890472 -1.18917747 -0.33121869
| 27> H -2.35932854 -2.90459302 -1.05345699
| 28> H -7.89951420 -0.76635068 -0.98453632
| 29> H -4.30923536 -4.03833928 -2.03446131
| 30> H -3.62046627 1.89638340 1.03567529
| 31> H -8.54772248 1.71396169 0.09246376
| 32> H -7.51723400 3.70749958 1.18257223
| 33> H -5.08861587 3.78263006 1.62581346
| 34> C 3.46176823 0.20220815 0.93977477
| 35> N 3.07488138 0.96322658 1.97400847
| 36> O 1.71786186 0.91602662 2.02801759
| 37> C 1.25072285 0.14324511 1.03652445
| 38> C 2.31052499 -0.34940012 0.29990557
| 39> C -0.18868364 -0.03716065 0.90712841
| 40> N -1.05935944 0.54130527 1.74742884
| 41> O -2.29928220 0.16659794 1.33693179
| 42> C -2.21933394 -0.62747688 0.25910642
| 43> C -0.88668631 -0.80924682 -0.06539237
| 44> H -0.47321748 -1.38195659 -0.88265948
| 45> H 2.24984389 -0.97042708 -0.58100774
| 46> C 7.01785280 3.04631356 2.08071723
| 47> S 5.36149022 2.45146956 2.13118632
| 48> C 5.77603045 1.09772136 1.07786161
| 49> C 7.15674409 1.13322065 0.73755087
| 50> C 7.83708432 2.26168917 1.32776036
| 51> C 7.69750520 0.13904583 -0.09557718
| 52> C 6.84005089 -0.86480273 -0.54433645
| 53> C 5.45218669 -0.90658286 -0.21686812
| 54> C 4.89046600 0.11147292 0.59809615
| 55> S 7.29620946 -2.23547770 -1.56166728
| 56> C 5.65432626 -2.86047453 -1.51105967
| 57> C 4.81399486 -2.07407634 -0.78263592
| 58> H 8.89375764 2.46022808 1.18225698
| 59> H 3.77241864 -2.32913926 -0.62848791
| 60> H 5.39278421 -3.78188332 -2.01646095
| 61> H 7.30900668 3.93831689 2.62203455
| 62> H -6.58431154 -3.01603428 -1.88330580
| 63> H 8.74844487 0.15193898 -0.37111282
| 64> *
| 65> $new_job
| 66> #
| 67> !wB97X-D3 def2-TZVP def2/J RIJCOSX Grid5 FinalGrid6 TightSCF
| 68> %pal
| 69>  nprocs 24
| 70> end
| 71> %elprop
| 72>    dipole     true
| 73>    quadrupole true
| 74> end
| 75> %tddft
| 76>   Mode sTDDFT
| 77>   nroots 2
| 78>   Ethresh 10.0
| 79>   maxcore 5000
| 80> end
| 81> * xyz 0 1
| 82> C -5.51581086 2.89787280 1.16217996
| 83> C -4.68429351 1.83071854 0.83255291
| 84> C -5.24310849 0.68555762 0.23321621
| 85> C -6.64125967 0.67632768 -0.03328464
| 86> C -7.48224918 1.74808846 0.30322376
| 87> C -6.89807963 2.85760060 0.90842353
| 88> C -4.71954077 -0.57744450 -0.26471137
| 89> C -5.83149378 -1.26946059 -0.82996774
| 90> N -6.97402137 -0.51015666 -0.66316154
| 91> C -5.71616226 -2.51561779 -1.46388499
| 92> C -4.44448213 -3.07822714 -1.54492094
| 93> C -3.33355886 -2.42696079 -0.99303529
| 94> C -3.43890472 -1.18917747 -0.33121869
| 95> H -2.35932854 -2.90459302 -1.05345699
| 96> H -7.89951420 -0.76635068 -0.98453632
| 97> H -4.30923536 -4.03833928 -2.03446131
| 98> H -3.62046627 1.89638340 1.03567529
| 99> H -8.54772248 1.71396169 0.09246376
|100> H -7.51723400 3.70749958 1.18257223
|101> H -5.08861587 3.78263006 1.62581346
|102> C 3.46176823 0.20220815 0.93977477
|103> N 3.07488138 0.96322658 1.97400847
|104> O 1.71786186 0.91602662 2.02801759
|105> C 1.25072285 0.14324511 1.03652445
|106> C 2.31052499 -0.34940012 0.29990557
|107> C -0.18868364 -0.03716065 0.90712841
|108> N -1.05935944 0.54130527 1.74742884
|109> O -2.29928220 0.16659794 1.33693179
|110> C -2.21933394 -0.62747688 0.25910642
|111> C -0.88668631 -0.80924682 -0.06539237
|112> H -0.47321748 -1.38195659 -0.88265948
|113> H 2.24984389 -0.97042708 -0.58100774
|114> C 7.01785280 3.04631356 2.08071723
|115> S 5.36149022 2.45146956 2.13118632
|116> C 5.77603045 1.09772136 1.07786161
|117> C 7.15674409 1.13322065 0.73755087
|118> C 7.83708432 2.26168917 1.32776036
|119> C 7.69750520 0.13904583 -0.09557718
|120> C 6.84005089 -0.86480273 -0.54433645
|121> C 5.45218669 -0.90658286 -0.21686812
|122> C 4.89046600 0.11147292 0.59809615
|123> S 7.29620946 -2.23547770 -1.56166728
|124> C 5.65432626 -2.86047453 -1.51105967
|125> C 4.81399486 -2.07407634 -0.78263592
|126> H 8.89375764 2.46022808 1.18225698
|127> H 3.77241864 -2.32913926 -0.62848791
|128> H 5.39278421 -3.78188332 -2.01646095
|129> H 7.30900668 3.93831689 2.62203455
|130> H -6.58431154 -3.01603428 -1.88330580
|131> H 8.74844487 0.15193898 -0.37111282
|132> *
|133>
|134>                          ****END OF INPUT****
 Total Charge           Charge          ....    0
 Multiplicity           Mult            ....    1
 Number of Electrons    NEL             ....  252
Dispersion correction           -0.023494781
FINAL SINGLE POINT ENERGY     -2187.142848741703

CARTESIAN COORDINATES (ANGSTROEM)
---------------------------------
  C     -5.515811    2.897873    1.162180
  C     -4.684294    1.830719    0.832553
  C     -5.243108    0.685558    0.233216
  C     -6.641260    0.676328   -0.033285
  C     -7.482249    1.748088    0.303224
  C     -6.898080    2.857601    0.908424
  C     -4.719541   -0.577445   -0.264711
  C     -5.831494   -1.269461   -0.829968
  N     -6.974021   -0.510157   -0.663162
  C     -5.716162   -2.515618   -1.463885
  C     -4.444482   -3.078227   -1.544921
  C     -3.333559   -2.426961   -0.993035
  C     -3.438905   -1.189177   -0.331219
  H     -2.359329   -2.904593   -1.053457
  H     -7.899514   -0.766351   -0.984536
  H     -4.309235   -4.038339   -2.034461
  H     -3.620466    1.896383    1.035675
  H     -8.547722    1.713962    0.092464
  H     -7.517234    3.707500    1.182572
  H     -5.088616    3.782630    1.625813
  C      3.461768    0.202208    0.939775
  N      3.074881    0.963227    1.974008
  O      1.717862    0.916027    2.028018
  C      1.250723    0.143245    1.036524
  C      2.310525   -0.349400    0.299906
  C     -0.188684   -0.037161    0.907128
  N     -1.059359    0.541305    1.747429
  O     -2.299282    0.166598    1.336932
  C     -2.219334   -0.627477    0.259106
  C     -0.886686   -0.809247   -0.065392
  H     -0.473217   -1.381957   -0.882659
  H      2.249844   -0.970427   -0.581008
  C      7.017853    3.046314    2.080717
  S      5.361490    2.451470    2.131186
  C      5.776030    1.097721    1.077862
  C      7.156744    1.133221    0.737551
  C      7.837084    2.261689    1.327760
  C      7.697505    0.139046   -0.095577
  C      6.840051   -0.864803   -0.544336
  C      5.452187   -0.906583   -0.216868
  C      4.890466    0.111473    0.598096
  S      7.296209   -2.235478   -1.561667
  C      5.654326   -2.860475   -1.511060
  C      4.813995   -2.074076   -0.782636
  H      8.893758    2.460228    1.182257
  H      3.772419   -2.329139   -0.628488
  H      5.392784   -3.781883   -2.016461
  H      7.309007    3.938317    2.622035
  H     -6.584312   -3.016034   -1.883306
  H      8.748445    0.151939   -0.371113

 Multiplicity           Mult            ....    1
 Number of Electrons    NEL             ....  252
 Basis Dimension        Dim             .... 1187

ORBITAL ENERGIES
----------------

  NO   OCC          E(Eh)            E(eV)
   0   2.0000     -88.980910     -2421.2937
   1   2.0000     -88.969179     -2420.9744
   2   2.0000     -19.342555      -526.3377
   3   2.0000     -19.337919      -526.2115
   4   2.0000     -14.486339      -394.1933
   5   2.0000     -14.480922      -394.0459
   6   2.0000     -14.474557      -393.8727
   7   2.0000     -10.374641      -282.3083
   8   2.0000     -10.372905      -282.2611
   9   2.0000     -10.348846      -281.6064
  10   2.0000     -10.341777      -281.4140
  11   2.0000     -10.338344      -281.3206
  12   2.0000     -10.330677      -281.1120
  13   2.0000     -10.328119      -281.0424
  14   2.0000     -10.325951      -280.9834
  15   2.0000     -10.324932      -280.9557
  16   2.0000     -10.322811      -280.8980
  17   2.0000     -10.320061      -280.8231
  18   2.0000     -10.313602      -280.6474
  19   2.0000     -10.311039      -280.5776
  20   2.0000     -10.308240      -280.5015
  21   2.0000     -10.306867      -280.4641
  22   2.0000     -10.305712      -280.4327
  23   2.0000     -10.304235      -280.3925
  24   2.0000     -10.303629      -280.3760
  25   2.0000     -10.301668      -280.3226
  26   2.0000     -10.299234      -280.2564
  27   2.0000     -10.298819      -280.2451
  28   2.0000     -10.297188      -280.2007
  29   2.0000     -10.294740      -280.1341
  30   2.0000     -10.289231      -279.9842
  31   2.0000     -10.287877      -279.9474
  32   2.0000     -10.287030      -279.9243
  33   2.0000     -10.285239      -279.8756
  34   2.0000     -10.276436      -279.6360
  35   2.0000      -8.077669      -219.8046
  36   2.0000      -8.065156      -219.4641
  37   2.0000      -6.031278      -164.1194
  38   2.0000      -6.027132      -164.0066
  39   2.0000      -6.023986      -163.9210
  40   2.0000      -6.018935      -163.7835
  41   2.0000      -6.014400      -163.6601
  42   2.0000      -6.011466      -163.5803
  43   2.0000      -1.291829       -35.1525
  44   2.0000      -1.285607       -34.9831
  45   2.0000      -1.112051       -30.2604
  46   2.0000      -1.030996       -28.0548
  47   2.0000      -1.015377       -27.6298
  48   2.0000      -0.996272       -27.1099
  49   2.0000      -0.989821       -26.9344
  50   2.0000      -0.984239       -26.7825
  51   2.0000      -0.968902       -26.3652
  52   2.0000      -0.942646       -25.6507
  53   2.0000      -0.926358       -25.2075
  54   2.0000      -0.920507       -25.0483
  55   2.0000      -0.906796       -24.6752
  56   2.0000      -0.902481       -24.5578
  57   2.0000      -0.876783       -23.8585
  58   2.0000      -0.855627       -23.2828
  59   2.0000      -0.851053       -23.1583
  60   2.0000      -0.845532       -23.0081
  61   2.0000      -0.835218       -22.7274
  62   2.0000      -0.811916       -22.0934
  63   2.0000      -0.783534       -21.3210
  64   2.0000      -0.773581       -21.0502
  65   2.0000      -0.764128       -20.7930
  66   2.0000      -0.740351       -20.1460
  67   2.0000      -0.731543       -19.9063
  68   2.0000      -0.719967       -19.5913
  69   2.0000      -0.718924       -19.5629
  70   2.0000      -0.712792       -19.3961
  71   2.0000      -0.703510       -19.1435
  72   2.0000      -0.677141       -18.4259
  73   2.0000      -0.668197       -18.1826
  74   2.0000      -0.659115       -17.9354
  75   2.0000      -0.652853       -17.7650
  76   2.0000      -0.632839       -17.2204
  77   2.0000      -0.626758       -17.0550
  78   2.0000      -0.620458       -16.8835
  79   2.0000      -0.612947       -16.6791
  80   2.0000      -0.610799       -16.6207
  81   2.0000      -0.603448       -16.4207
  82   2.0000      -0.593940       -16.1619
  83   2.0000      -0.593789       -16.1578
  84   2.0000      -0.574482       -15.6325
  85   2.0000      -0.568529       -15.4705
  86   2.0000      -0.565155       -15.3787
  87   2.0000      -0.558386       -15.1944
  88   2.0000      -0.552416       -15.0320
  89   2.0000      -0.542702       -14.7677
  90   2.0000      -0.536308       -14.5937
  91   2.0000      -0.535293       -14.5661
  92   2.0000      -0.533218       -14.5096
  93   2.0000      -0.531141       -14.4531
  94   2.0000      -0.528358       -14.3774
  95   2.0000      -0.527794       -14.3620
  96   2.0000      -0.515882       -14.0379
  97   2.0000      -0.508031       -13.8242
  98   2.0000      -0.501805       -13.6548
  99   2.0000      -0.481915       -13.1136
 100   2.0000      -0.479398       -13.0451
 101   2.0000      -0.477796       -13.0015
 102   2.0000      -0.473540       -12.8857
 103   2.0000      -0.472996       -12.8709
 104   2.0000      -0.472264       -12.8510
 105   2.0000      -0.459479       -12.5030
 106   2.0000      -0.450400       -12.2560
 107   2.0000      -0.448917       -12.2156
 108   2.0000      -0.447945       -12.1892
 109   2.0000      -0.444475       -12.0948
 110   2.0000      -0.437550       -11.9063
 111   2.0000      -0.430720       -11.7205
 112   2.0000      -0.428657       -11.6643
 113   2.0000      -0.415049       -11.2941
 114   2.0000      -0.403820       -10.9885
 115   2.0000      -0.396994       -10.8028
 116   2.0000      -0.393816       -10.7163
 117   2.0000      -0.376077       -10.2336
 118   2.0000      -0.374447       -10.1892
 119   2.0000      -0.350514        -9.5380
 120   2.0000      -0.340970        -9.2783
 121   2.0000      -0.335428        -9.1275
 122   2.0000      -0.314800        -8.5661
 123   2.0000      -0.305331        -8.3085
 124   2.0000      -0.294308        -8.0085
 125   2.0000      -0.282758        -7.6942
 126   0.0000      -0.005987        -0.1629
 127   0.0000       0.000778         0.0212
 128   0.0000       0.019398         0.5278
 129   0.0000       0.045527         1.2388
 130   0.0000       0.047937         1.3044

MULLIKEN ATOMIC CHARGES
-----------------------
   0 C :   -0.176148
   1 C :   -0.133405
   2 C :   -0.039926
   3 C :    0.170969
   4 C :   -0.236073
   5 C :   -0.078270
   6 C :   -0.024354
   7 C :    0.177939
   8 N :   -0.301654
   9 C :   -0.225257
  10 C :   -0.086746
  11 C :   -0.285024
  12 C :    0.064719
  13 H :    0.119025
  14 H :    0.237775
  15 H :    0.125472
  16 H :    0.152965
  17 H :    0.115868
  18 H :    0.124090
  19 H :    0.122888
  20 C :    0.312763
  21 N :   -0.176584
  22 O :   -0.105307
  23 C :    0.194537
  24 C :   -0.291988
  25 C :    0.140387
  26 N :   -0.159358
  27 O :   -0.127665
  28 C :    0.300825
  29 C :   -0.270079
  30 H :    0.162871
  31 H :    0.158170
  32 C :   -0.161891
  33 S :    0.089372
  34 C :   -0.160365
  35 C :    0.114664
  36 C :   -0.224327
  37 C :   -0.283644
  38 C :    0.031931
  39 C :    0.054094
  40 C :    0.160568
  41 S :    0.053303
  42 C :   -0.126148
  43 C :   -0.337912
  44 H :    0.128532
  45 H :    0.126348
  46 H :    0.163608
  47 H :    0.158460
  48 H :    0.121861
  49 H :    0.128118
Sum of atomic charges:   -0.0000000

LOEWDIN ATOMIC CHARGES
----------------------
   0 C :   -0.155019
   1 C :   -0.095724
   2 C :   -0.080698
   3 C :   -0.144283
   4 C :   -0.133627
   5 C :   -0.137807
   6 C :   -0.033810
   7 C :   -0.142910
   8 N :    0.202173
   9 C :   -0.120074
  10 C :   -0.140922
  11 C :   -0.108952
  12 C :   -0.082474
  13 H :    0.149344
  14 H :    0.194060
  15 H :    0.147500
  16 H :    0.152528
  17 H :    0.143279
  18 H :    0.145370
  19 H :    0.145456
  20 C :   -0.201585
  21 N :    0.039895
  22 O :    0.318267
  23 C :   -0.216629
  24 C :   -0.123161
  25 C :   -0.227806
  26 N :    0.049048
  27 O :    0.312251
  28 C :   -0.197335
  29 C :   -0.121530
  30 H :    0.148161
  31 H :    0.145900
  32 C :   -0.360033
  33 S :    0.702860
  34 C :   -0.246087
  35 C :   -0.147018
  36 C :   -0.174317
  37 C :   -0.097755
  38 C :   -0.301137
  39 C :   -0.103826
  40 C :   -0.084442
  41 S :    0.669531
  42 C :   -0.360386
  43 C :   -0.173685
  44 H :    0.144259
  45 H :    0.144150
  46 H :    0.131430
  47 H :    0.130505
  48 H :    0.145751
  49 H :    0.151309

  Mayer bond orders larger than 0.1
B(  0-C ,  1-C ) :   1.5383 B(  0-C ,  5-C ) :   1.3525 B(  0-C , 19-H ) :   0.9862
B(  1-C ,  2-C ) :   1.2662 B(  1-C , 16-H ) :   0.9370 B(  2-C ,  3-C ) :   1.3612
B(  2-C ,  6-C ) :   1.0743 B(  3-C ,  4-C ) :   1.3035 B(  3-C ,  8-N ) :   1.1178
B(  4-C ,  5-C ) :   1.4809 B(  4-C , 17-H ) :   0.9759 B(  5-C , 18-H ) :   0.9815
B(  6-C ,  7-C ) :   1.3256 B(  6-C , 12-C ) :   1.2455 B(  7-C ,  8-N ) :   1.1575
B(  7-C ,  9-C ) :   1.2920 B(  8-N , 14-H ) :   0.9120 B(  9-C , 10-C ) :   1.4632
B(  9-C , 48-H ) :   0.9719 B( 10-C , 11-C ) :   1.4091 B( 10-C , 15-H ) :   0.9821
B( 11-C , 12-C ) :   1.4362 B( 11-C , 13-H ) :   0.9741 B( 12-C , 28-C ) :   0.9575
B( 20-C , 21-N ) :   1.5995 B( 20-C , 24-C ) :   1.2618 B( 20-C , 34-C ) :  -0.1151
B( 20-C , 40-C ) :   0.8654 B( 21-N , 22-O ) :   0.9863 B( 21-N , 23-C ) :   0.1211
B( 22-O , 23-C ) :   1.2253 B( 23-C , 24-C ) :   1.6316 B( 23-C , 25-C ) :   0.9790
B( 24-C , 31-H ) :   0.9155 B( 25-C , 26-N ) :   1.6516 B( 25-C , 29-C ) :   1.2858
B( 26-N , 27-O ) :   0.9859 B( 26-N , 28-C ) :   0.1249 B( 27-O , 28-C ) :   1.1722
B( 28-C , 29-C ) :   1.6090 B( 29-C , 30-H ) :   0.9207 B( 32-C , 33-S ) :   1.1952
B( 32-C , 36-C ) :   1.7835 B( 32-C , 47-H ) :   0.9445 B( 33-S , 34-C ) :   1.3094
B( 33-S , 36-C ) :   0.1161 B( 34-C , 35-C ) :   1.2517 B( 34-C , 40-C ) :   1.2702
B( 35-C , 36-C ) :   1.1223 B( 35-C , 37-C ) :   1.3258 B( 36-C , 44-H ) :   0.9657
B( 37-C , 38-C ) :   1.3503 B( 37-C , 49-H ) :   0.9681 B( 38-C , 39-C ) :   1.3217
B( 38-C , 41-S ) :   1.2273 B( 39-C , 40-C ) :   1.2178 B( 39-C , 43-C ) :   1.0846
B( 41-S , 42-C ) :   1.1664 B( 41-S , 43-C ) :   0.1729 B( 42-C , 43-C ) :   1.8410
B( 42-C , 46-H ) :   0.9389 B( 43-C , 45-H ) :   0.9489

Dispersion correction           -0.023494781
FINAL SINGLE POINT ENERGY     -2187.142848677525

DIPOLE MOMENT
-------------
                                X             Y             Z
Electronic contribution:     18.69360       0.96495       5.26079
Nuclear contribution   :    -19.92394      -2.21887      -7.09013
                        -----------------------------------------
Total Dipole Moment    :     -1.23034      -1.25392      -1.82934
                        -----------------------------------------
Magnitude (a.u.)       :      2.53625
Magnitude (Debye)      :      6.44662

                             ****ORCA TERMINATED NORMALLY****
TOTAL RUN TIME: 0 days 0 hours 13 minutes 29 seconds 355 msec
