                         Program Version 4.0.0 -  RELEASE  -
|  1> #
|  2> !wB97X-D3 def2-TZVP def2/J RIJCOSX Grid5 FinalGrid6 TightSCF
|  3> %pal
|  4>  nprocs 24
|  5> end
|  6> %tddft
|  7>   Mode sTDDFT
|  8>   nroots 2
|  9>   Ethresh 10.0
| 10>   maxcore 5000
| 11>   triplets true
| 12> end
| 13> * xyz 0 1
| 14> C -7.69600522 -2.71399887 -0.81855050
| 15> C -6.91704704 -1.60766359 -0.48954203
| 16> C -7.52483066 -0.33991221 -0.41088790
| 17> C -8.91575694 -0.23852906 -0.69553058
| 18> C -9.70405437 -1.35271253 -1.02162541
| 19> C -9.07297514 -2.59266846 -1.07518144
| 20> C -7.06049241 1.01101341 -0.13379540
| 21> C -8.19665416 1.85857760 -0.29342185
| 22> N -9.29953808 1.08834436 -0.61015106
| 23> C -8.13639445 3.25369961 -0.15900494
| 24> C -6.89569979 3.81650158 0.13122099
| 25> C -5.76249917 3.01041770 0.30130659
| 26> C -5.81377418 1.60779327 0.19532276
| 27> H -4.81463341 3.48012465 0.54987482
| 28> H -10.23085600 1.44414472 -0.78759548
| 29> H -6.80285900 4.89361892 0.23599006
| 30> H -5.85558493 -1.73450235 -0.30381143
| 31> H -10.76533285 -1.24844735 -1.23057699
| 32> H -9.65058505 -3.47846227 -1.32539301
| 33> H -7.23095398 -3.69397039 -0.87901124
| 34> C 1.12166529 -0.00959981 0.85235968
| 35> N 0.76025498 -1.22066848 1.30549891
| 36> O -0.59897822 -1.25071225 1.30256330
| 37> C -1.08693187 -0.08304818 0.85690001
| 38> C -0.03868086 0.76195289 0.54888967
| 39> C -2.53120752 0.08725225 0.77673521
| 40> N -3.38590915 -0.88160707 1.13679528
| 41> O -4.63603554 -0.38949979 0.93261901
| 42> C -4.57759717 0.86071093 0.45048033
| 43> C -3.25061193 1.23483555 0.33547072
| 44> H -2.85248277 2.17051671 -0.02901942
| 45> H -0.09047252 1.77178584 0.16726285
| 46> C 3.63346411 -0.37891013 1.01873134
| 47> C 2.51918278 0.37748770 0.72059076
| 48> S 2.98757155 1.96328227 0.12560920
| 49> C 4.68417418 1.57436177 0.29087812
| 50> C 4.87009773 0.30054378 0.77645022
| 51> C 6.22243593 -0.31926716 1.01753595
| 52> C 6.46691437 -1.54476426 0.12236740
| 53> C 7.84603683 -2.19353585 0.33707145
| 54> C 8.92398224 -1.73372181 -0.65126417
| 55> C 9.25017927 -0.23947701 -0.57723215
| 56> C 10.41035436 0.14170116 -1.48645110
| 57> H 3.56992965 -1.39139140 1.40233996
| 58> H 11.31448083 -0.39763643 -1.21175733
| 59> H 10.18498359 -0.09529849 -2.52408614
| 60> H 10.62090110 1.20693408 -1.42255468
| 61> H 6.30553731 -0.62751215 2.06738797
| 62> H 7.00149479 0.42996810 0.85260085
| 63> H 5.68357964 -2.28088294 0.32852105
| 64> H 6.34797028 -1.25943242 -0.92696477
| 65> H 7.74534506 -3.27968256 0.24245937
| 66> H 8.18532245 -2.00787953 1.36143375
| 67> H 8.36670517 0.34247048 -0.85608400
| 68> H 9.48893315 0.03265544 0.45605003
| 69> H 8.60986646 -1.98147429 -1.67069568
| 70> H 9.83759688 -2.30837022 -0.46436774
| 71> H -9.02179025 3.87003388 -0.28643475
| 72> H 5.45816464 2.28441066 0.02847358
| 73> *
| 74> $new_job
| 75> #
| 76> !wB97X-D3 def2-TZVP def2/J RIJCOSX Grid5 FinalGrid6 TightSCF
| 77> %pal
| 78>  nprocs 24
| 79> end
| 80> %elprop
| 81>    dipole     true
| 82>    quadrupole true
| 83> end
| 84> %tddft
| 85>   Mode sTDDFT
| 86>   nroots 2
| 87>   Ethresh 10.0
| 88>   maxcore 5000
| 89> end
| 90> * xyz 0 1
| 91> C -7.69600522 -2.71399887 -0.81855050
| 92> C -6.91704704 -1.60766359 -0.48954203
| 93> C -7.52483066 -0.33991221 -0.41088790
| 94> C -8.91575694 -0.23852906 -0.69553058
| 95> C -9.70405437 -1.35271253 -1.02162541
| 96> C -9.07297514 -2.59266846 -1.07518144
| 97> C -7.06049241 1.01101341 -0.13379540
| 98> C -8.19665416 1.85857760 -0.29342185
| 99> N -9.29953808 1.08834436 -0.61015106
|100> C -8.13639445 3.25369961 -0.15900494
|101> C -6.89569979 3.81650158 0.13122099
|102> C -5.76249917 3.01041770 0.30130659
|103> C -5.81377418 1.60779327 0.19532276
|104> H -4.81463341 3.48012465 0.54987482
|105> H -10.23085600 1.44414472 -0.78759548
|106> H -6.80285900 4.89361892 0.23599006
|107> H -5.85558493 -1.73450235 -0.30381143
|108> H -10.76533285 -1.24844735 -1.23057699
|109> H -9.65058505 -3.47846227 -1.32539301
|110> H -7.23095398 -3.69397039 -0.87901124
|111> C 1.12166529 -0.00959981 0.85235968
|112> N 0.76025498 -1.22066848 1.30549891
|113> O -0.59897822 -1.25071225 1.30256330
|114> C -1.08693187 -0.08304818 0.85690001
|115> C -0.03868086 0.76195289 0.54888967
|116> C -2.53120752 0.08725225 0.77673521
|117> N -3.38590915 -0.88160707 1.13679528
|118> O -4.63603554 -0.38949979 0.93261901
|119> C -4.57759717 0.86071093 0.45048033
|120> C -3.25061193 1.23483555 0.33547072
|121> H -2.85248277 2.17051671 -0.02901942
|122> H -0.09047252 1.77178584 0.16726285
|123> C 3.63346411 -0.37891013 1.01873134
|124> C 2.51918278 0.37748770 0.72059076
|125> S 2.98757155 1.96328227 0.12560920
|126> C 4.68417418 1.57436177 0.29087812
|127> C 4.87009773 0.30054378 0.77645022
|128> C 6.22243593 -0.31926716 1.01753595
|129> C 6.46691437 -1.54476426 0.12236740
|130> C 7.84603683 -2.19353585 0.33707145
|131> C 8.92398224 -1.73372181 -0.65126417
|132> C 9.25017927 -0.23947701 -0.57723215
|133> C 10.41035436 0.14170116 -1.48645110
|134> H 3.56992965 -1.39139140 1.40233996
|135> H 11.31448083 -0.39763643 -1.21175733
|136> H 10.18498359 -0.09529849 -2.52408614
|137> H 10.62090110 1.20693408 -1.42255468
|138> H 6.30553731 -0.62751215 2.06738797
|139> H 7.00149479 0.42996810 0.85260085
|140> H 5.68357964 -2.28088294 0.32852105
|141> H 6.34797028 -1.25943242 -0.92696477
|142> H 7.74534506 -3.27968256 0.24245937
|143> H 8.18532245 -2.00787953 1.36143375
|144> H 8.36670517 0.34247048 -0.85608400
|145> H 9.48893315 0.03265544 0.45605003
|146> H 8.60986646 -1.98147429 -1.67069568
|147> H 9.83759688 -2.30837022 -0.46436774
|148> H -9.02179025 3.87003388 -0.28643475
|149> H 5.45816464 2.28441066 0.02847358
|150> *
|151>
|152>                          ****END OF INPUT****
 Total Charge           Charge          ....    0
 Multiplicity           Mult            ....    1
 Number of Electrons    NEL             ....  246
Dispersion correction           -0.025582575
FINAL SINGLE POINT ENERGY     -1794.976986125880

CARTESIAN COORDINATES (ANGSTROEM)
---------------------------------
  C     -7.696005   -2.713999   -0.818550
  C     -6.917047   -1.607664   -0.489542
  C     -7.524831   -0.339912   -0.410888
  C     -8.915757   -0.238529   -0.695531
  C     -9.704054   -1.352713   -1.021625
  C     -9.072975   -2.592668   -1.075181
  C     -7.060492    1.011013   -0.133795
  C     -8.196654    1.858578   -0.293422
  N     -9.299538    1.088344   -0.610151
  C     -8.136394    3.253700   -0.159005
  C     -6.895700    3.816502    0.131221
  C     -5.762499    3.010418    0.301307
  C     -5.813774    1.607793    0.195323
  H     -4.814633    3.480125    0.549875
  H    -10.230856    1.444145   -0.787595
  H     -6.802859    4.893619    0.235990
  H     -5.855585   -1.734502   -0.303811
  H    -10.765333   -1.248447   -1.230577
  H     -9.650585   -3.478462   -1.325393
  H     -7.230954   -3.693970   -0.879011
  C      1.121665   -0.009600    0.852360
  N      0.760255   -1.220668    1.305499
  O     -0.598978   -1.250712    1.302563
  C     -1.086932   -0.083048    0.856900
  C     -0.038681    0.761953    0.548890
  C     -2.531208    0.087252    0.776735
  N     -3.385909   -0.881607    1.136795
  O     -4.636036   -0.389500    0.932619
  C     -4.577597    0.860711    0.450480
  C     -3.250612    1.234836    0.335471
  H     -2.852483    2.170517   -0.029019
  H     -0.090473    1.771786    0.167263
  C      3.633464   -0.378910    1.018731
  C      2.519183    0.377488    0.720591
  S      2.987572    1.963282    0.125609
  C      4.684174    1.574362    0.290878
  C      4.870098    0.300544    0.776450
  C      6.222436   -0.319267    1.017536
  C      6.466914   -1.544764    0.122367
  C      7.846037   -2.193536    0.337071
  C      8.923982   -1.733722   -0.651264
  C      9.250179   -0.239477   -0.577232
  C     10.410354    0.141701   -1.486451
  H      3.569930   -1.391391    1.402340
  H     11.314481   -0.397636   -1.211757
  H     10.184984   -0.095298   -2.524086
  H     10.620901    1.206934   -1.422555
  H      6.305537   -0.627512    2.067388
  H      7.001495    0.429968    0.852601
  H      5.683580   -2.280883    0.328521
  H      6.347970   -1.259432   -0.926965
  H      7.745345   -3.279683    0.242459
  H      8.185322   -2.007880    1.361434
  H      8.366705    0.342470   -0.856084
  H      9.488933    0.032655    0.456050
  H      8.609866   -1.981474   -1.670696
  H      9.837597   -2.308370   -0.464368
  H     -9.021790    3.870034   -0.286435
  H      5.458165    2.284411    0.028474

 Multiplicity           Mult            ....    1
 Number of Electrons    NEL             ....  246
 Basis Dimension        Dim             .... 1210

ORBITAL ENERGIES
----------------

  NO   OCC          E(Eh)            E(eV)
   0   2.0000     -88.984384     -2421.3882
   1   2.0000     -19.339788      -526.2624
   2   2.0000     -19.333214      -526.0835
   3   2.0000     -14.483409      -394.1136
   4   2.0000     -14.476557      -393.9271
   5   2.0000     -14.473166      -393.8349
   6   2.0000     -10.370686      -282.2007
   7   2.0000     -10.370270      -282.1894
   8   2.0000     -10.345983      -281.5285
   9   2.0000     -10.339472      -281.3513
  10   2.0000     -10.336758      -281.2775
  11   2.0000     -10.329356      -281.0761
  12   2.0000     -10.328225      -281.0453
  13   2.0000     -10.320972      -280.8479
  14   2.0000     -10.312481      -280.6169
  15   2.0000     -10.306560      -280.4558
  16   2.0000     -10.302941      -280.3573
  17   2.0000     -10.302645      -280.3492
  18   2.0000     -10.300008      -280.2775
  19   2.0000     -10.297577      -280.2113
  20   2.0000     -10.296630      -280.1855
  21   2.0000     -10.295278      -280.1488
  22   2.0000     -10.293354      -280.0964
  23   2.0000     -10.289640      -279.9953
  24   2.0000     -10.288013      -279.9511
  25   2.0000     -10.286673      -279.9146
  26   2.0000     -10.283878      -279.8386
  27   2.0000     -10.283020      -279.8152
  28   2.0000     -10.275184      -279.6020
  29   2.0000     -10.274032      -279.5706
  30   2.0000     -10.271105      -279.4910
  31   2.0000     -10.270541      -279.4756
  32   2.0000     -10.269329      -279.4426
  33   2.0000     -10.261356      -279.2257
  34   2.0000      -8.080709      -219.8873
  35   2.0000      -6.033982      -164.1930
  36   2.0000      -6.029879      -164.0813
  37   2.0000      -6.027848      -164.0261
  38   2.0000      -1.288938       -35.0738
  39   2.0000      -1.280598       -34.8468
  40   2.0000      -1.110630       -30.2218
  41   2.0000      -1.018196       -27.7065
  42   2.0000      -1.006622       -27.3916
  43   2.0000      -0.987058       -26.8592
  44   2.0000      -0.976451       -26.5706
  45   2.0000      -0.967442       -26.3254
  46   2.0000      -0.939991       -25.5785
  47   2.0000      -0.932982       -25.3877
  48   2.0000      -0.918537       -24.9947
  49   2.0000      -0.905225       -24.6324
  50   2.0000      -0.900036       -24.4912
  51   2.0000      -0.875147       -23.8139
  52   2.0000      -0.860714       -23.4212
  53   2.0000      -0.851273       -23.1643
  54   2.0000      -0.849210       -23.1082
  55   2.0000      -0.843999       -22.9664
  56   2.0000      -0.814370       -22.1601
  57   2.0000      -0.780330       -21.2339
  58   2.0000      -0.771634       -20.9972
  59   2.0000      -0.762735       -20.7551
  60   2.0000      -0.745733       -20.2924
  61   2.0000      -0.734602       -19.9895
  62   2.0000      -0.722471       -19.6594
  63   2.0000      -0.718053       -19.5392
  64   2.0000      -0.712446       -19.3866
  65   2.0000      -0.705860       -19.2074
  66   2.0000      -0.696883       -18.9631
  67   2.0000      -0.677740       -18.4422
  68   2.0000      -0.666492       -18.1362
  69   2.0000      -0.653326       -17.7779
  70   2.0000      -0.637075       -17.3357
  71   2.0000      -0.631265       -17.1776
  72   2.0000      -0.618858       -16.8400
  73   2.0000      -0.610075       -16.6010
  74   2.0000      -0.607679       -16.5358
  75   2.0000      -0.602187       -16.3863
  76   2.0000      -0.590027       -16.0555
  77   2.0000      -0.585393       -15.9293
  78   2.0000      -0.578951       -15.7541
  79   2.0000      -0.567666       -15.4470
  80   2.0000      -0.565984       -15.4012
  81   2.0000      -0.560442       -15.2504
  82   2.0000      -0.557378       -15.1670
  83   2.0000      -0.550923       -14.9914
  84   2.0000      -0.539987       -14.6938
  85   2.0000      -0.533609       -14.5202
  86   2.0000      -0.533189       -14.5088
  87   2.0000      -0.529581       -14.4106
  88   2.0000      -0.526514       -14.3272
  89   2.0000      -0.519439       -14.1347
  90   2.0000      -0.518756       -14.1161
  91   2.0000      -0.515827       -14.0364
  92   2.0000      -0.502279       -13.6677
  93   2.0000      -0.499999       -13.6057
  94   2.0000      -0.494099       -13.4451
  95   2.0000      -0.486578       -13.2405
  96   2.0000      -0.478368       -13.0171
  97   2.0000      -0.475955       -12.9514
  98   2.0000      -0.471758       -12.8372
  99   2.0000      -0.470751       -12.8098
 100   2.0000      -0.467221       -12.7137
 101   2.0000      -0.456292       -12.4163
 102   2.0000      -0.450457       -12.2575
 103   2.0000      -0.448494       -12.2042
 104   2.0000      -0.446297       -12.1444
 105   2.0000      -0.439961       -11.9719
 106   2.0000      -0.436922       -11.8893
 107   2.0000      -0.430827       -11.7234
 108   2.0000      -0.430031       -11.7017
 109   2.0000      -0.417371       -11.3572
 110   2.0000      -0.415481       -11.3058
 111   2.0000      -0.413011       -11.2386
 112   2.0000      -0.405163       -11.0250
 113   2.0000      -0.403288       -10.9740
 114   2.0000      -0.401010       -10.9120
 115   2.0000      -0.394614       -10.7380
 116   2.0000      -0.374294       -10.1851
 117   2.0000      -0.346979        -9.4418
 118   2.0000      -0.337742        -9.1904
 119   2.0000      -0.333890        -9.0856
 120   2.0000      -0.310028        -8.4363
 121   2.0000      -0.303772        -8.2661
 122   2.0000      -0.292697        -7.9647
 123   0.0000      -0.002550        -0.0694
 124   0.0000       0.013798         0.3755
 125   0.0000       0.032210         0.8765
 126   0.0000       0.048046         1.3074
 127   0.0000       0.080654         2.1947

MULLIKEN ATOMIC CHARGES
-----------------------
   0 C :   -0.179834
   1 C :   -0.125893
   2 C :   -0.052059
   3 C :    0.168506
   4 C :   -0.234937
   5 C :   -0.077788
   6 C :   -0.020752
   7 C :    0.175291
   8 N :   -0.302277
   9 C :   -0.222166
  10 C :   -0.089419
  11 C :   -0.281571
  12 C :    0.076691
  13 H :    0.120922
  14 H :    0.237172
  15 H :    0.125490
  16 H :    0.153143
  17 H :    0.115126
  18 H :    0.124046
  19 H :    0.122693
  20 C :    0.299948
  21 N :   -0.154246
  22 O :   -0.098552
  23 C :    0.224736
  24 C :   -0.272656
  25 C :    0.123004
  26 N :   -0.160180
  27 O :   -0.128265
  28 C :    0.289393
  29 C :   -0.268328
  30 H :    0.163060
  31 H :    0.165124
  32 C :   -0.310321
  33 C :   -0.065606
  34 S :    0.034290
  35 C :   -0.214958
  36 C :    0.111939
  37 C :   -0.314497
  38 C :   -0.217047
  39 C :   -0.128240
  40 C :   -0.232788
  41 C :   -0.203547
  42 C :   -0.337780
  43 H :    0.165984
  44 H :    0.110647
  45 H :    0.108923
  46 H :    0.117038
  47 H :    0.122122
  48 H :    0.125236
  49 H :    0.115641
  50 H :    0.117697
  51 H :    0.108313
  52 H :    0.097122
  53 H :    0.092449
  54 H :    0.100975
  55 H :    0.105079
  56 H :    0.098519
  57 H :    0.121281
  58 H :    0.156108
Sum of atomic charges:   -0.0000000

LOEWDIN ATOMIC CHARGES
----------------------
   0 C :   -0.155459
   1 C :   -0.095557
   2 C :   -0.080691
   3 C :   -0.144390
   4 C :   -0.133984
   5 C :   -0.138256
   6 C :   -0.033917
   7 C :   -0.143104
   8 N :    0.201992
   9 C :   -0.120582
  10 C :   -0.141002
  11 C :   -0.108636
  12 C :   -0.082189
  13 H :    0.149706
  14 H :    0.193917
  15 H :    0.147456
  16 H :    0.152601
  17 H :    0.143130
  18 H :    0.145219
  19 H :    0.145296
  20 C :   -0.254013
  21 N :    0.043182
  22 O :    0.315614
  23 C :   -0.219651
  24 C :   -0.125697
  25 C :   -0.227932
  26 N :    0.047942
  27 O :    0.311281
  28 C :   -0.198227
  29 C :   -0.120737
  30 H :    0.148651
  31 H :    0.146967
  32 C :   -0.112315
  33 C :   -0.327551
  34 S :    0.698473
  35 C :   -0.355575
  36 C :   -0.202912
  37 C :   -0.222873
  38 C :   -0.252061
  39 C :   -0.263245
  40 C :   -0.271657
  41 C :   -0.299565
  42 C :   -0.310981
  43 H :    0.155027
  44 H :    0.117389
  45 H :    0.117746
  46 H :    0.116763
  47 H :    0.145928
  48 H :    0.141160
  49 H :    0.136734
  50 H :    0.139442
  51 H :    0.135819
  52 H :    0.135464
  53 H :    0.131104
  54 H :    0.131937
  55 H :    0.134917
  56 H :    0.135105
  57 H :    0.145563
  58 H :    0.131235

  Mayer bond orders larger than 0.1
B(  0-C ,  1-C ) :   1.5366 B(  0-C ,  5-C ) :   1.3515 B(  0-C , 19-H ) :   0.9869
B(  1-C ,  2-C ) :   1.2727 B(  1-C , 16-H ) :   0.9343 B(  2-C ,  3-C ) :   1.3652
B(  2-C ,  6-C ) :   1.0744 B(  3-C ,  4-C ) :   1.3070 B(  3-C ,  8-N ) :   1.1171
B(  4-C ,  5-C ) :   1.4820 B(  4-C , 17-H ) :   0.9750 B(  5-C , 18-H ) :   0.9808
B(  6-C ,  7-C ) :   1.3291 B(  6-C , 12-C ) :   1.2472 B(  7-C ,  8-N ) :   1.1573
B(  7-C ,  9-C ) :   1.2929 B(  8-N , 14-H ) :   0.9120 B(  9-C , 10-C ) :   1.4617
B(  9-C , 57-H ) :   0.9715 B( 10-C , 11-C ) :   1.4083 B( 10-C , 15-H ) :   0.9839
B( 11-C , 12-C ) :   1.4324 B( 11-C , 13-H ) :   0.9717 B( 12-C , 28-C ) :   0.9717
B( 20-C , 21-N ) :   1.6563 B( 20-C , 24-C ) :   1.2523 B( 20-C , 33-C ) :   0.8952
B( 20-C , 34-S ) :  -0.1297 B( 21-N , 22-O ) :   0.9912 B( 21-N , 23-C ) :   0.1129
B( 22-O , 23-C ) :   1.2257 B( 23-C , 24-C ) :   1.6290 B( 23-C , 25-C ) :   0.9839
B( 24-C , 31-H ) :   0.9066 B( 25-C , 26-N ) :   1.6558 B( 25-C , 29-C ) :   1.2897
B( 26-N , 27-O ) :   0.9860 B( 26-N , 28-C ) :   0.1258 B( 27-O , 28-C ) :   1.1694
B( 28-C , 29-C ) :   1.6115 B( 29-C , 30-H ) :   0.9236 B( 32-C , 33-C ) :   1.6667
B( 32-C , 36-C ) :   1.2525 B( 32-C , 43-H ) :   0.9245 B( 33-C , 34-S ) :   1.3088
B( 33-C , 36-C ) :  -0.1057 B( 34-S , 35-C ) :   1.2641 B( 34-S , 36-C ) :   0.1090
B( 35-C , 36-C ) :   1.6738 B( 35-C , 58-H ) :   0.9405 B( 36-C , 37-C ) :   0.9405
B( 37-C , 38-C ) :   0.9630 B( 37-C , 47-H ) :   0.9409 B( 37-C , 48-H ) :   1.0032
B( 38-C , 39-C ) :   0.9149 B( 38-C , 49-H ) :   0.9804 B( 38-C , 50-H ) :   0.9764
B( 39-C , 40-C ) :   0.9956 B( 39-C , 51-H ) :   0.9787 B( 39-C , 52-H ) :   0.9804
B( 40-C , 41-C ) :   0.9760 B( 40-C , 55-H ) :   0.9742 B( 40-C , 56-H ) :   0.9747
B( 41-C , 42-C ) :   0.9869 B( 41-C , 53-H ) :   0.9680 B( 41-C , 54-H ) :   0.9659
B( 42-C , 44-H ) :   0.9846 B( 42-C , 45-H ) :   0.9790 B( 42-C , 46-H ) :   0.9850

Dispersion correction           -0.025582575
FINAL SINGLE POINT ENERGY     -1794.976986130927

DIPOLE MOMENT
-------------
                                X             Y             Z
Electronic contribution:    -76.29534       9.21275       8.44779
Nuclear contribution   :     75.62593      -7.38328      -9.32652
                        -----------------------------------------
Total Dipole Moment    :     -0.66941       1.82946      -0.87873
                        -----------------------------------------
Magnitude (a.u.)       :      2.13711
Magnitude (Debye)      :      5.43209

                             ****ORCA TERMINATED NORMALLY****
TOTAL RUN TIME: 0 days 0 hours 10 minutes 21 seconds 183 msec
