                         Program Version 4.0.0 -  RELEASE  -
|  1> #
|  2> !wB97X-D3 def2-TZVP def2/J RIJCOSX Grid5 FinalGrid6 TightSCF
|  3> %pal
|  4>  nprocs 24
|  5> end
|  6> %tddft
|  7>   Mode sTDDFT
|  8>   nroots 2
|  9>   Ethresh 10.0
| 10>   maxcore 5000
| 11>   triplets true
| 12> end
| 13> * xyz 0 1
| 14> C 8.35884587 1.89622727 2.14166813
| 15> C 7.41957674 1.28063854 1.31724991
| 16> C 7.76098000 0.07921095 0.66944408
| 17> C 9.04549758 -0.48378756 0.91242985
| 18> C 9.99639730 0.13890890 1.73529544
| 19> C 9.63503362 1.34061272 2.34041876
| 20> C 7.06260610 -0.84721986 -0.20689333
| 21> C 7.95003357 -1.94129196 -0.41466246
| 22> N 9.14255846 -1.69096980 0.24190989
| 23> C 7.59414192 -3.07874475 -1.15592502
| 24> C 6.30423423 -3.11825011 -1.68285866
| 25> C 5.41510514 -2.04924918 -1.50531324
| 26> C 5.77214703 -0.88676677 -0.79746915
| 27> H 4.42658026 -2.10493751 -1.95459322
| 28> H 9.93750582 -2.31746144 0.27094692
| 29> H 5.98312474 -3.98681107 -2.25141361
| 30> H 6.43441865 1.72192485 1.19802446
| 31> H 10.97402127 -0.30558300 1.90206197
| 32> H 10.34514610 1.85068057 2.98590472
| 33> H 8.10131173 2.82428476 2.64461512
| 34> N 0.45203285 1.53869613 -0.49405786
| 35> C 1.55665515 2.36747338 -0.64828305
| 36> C 1.27076619 3.71969638 -0.72307246
| 37> S -0.44918075 3.97933233 -0.59675761
| 38> C -0.68171415 2.21621405 -0.44737887
| 39> C 2.88034150 1.77297671 -0.71587344
| 40> S 3.09093361 0.01729135 -0.59870665
| 41> C 4.83280504 0.24016021 -0.73902433
| 42> C 5.10364980 1.58959850 -0.88323371
| 43> N 4.01858060 2.43611790 -0.86651471
| 44> H 1.98173473 4.52629733 -0.84218601
| 45> H 6.09884492 1.99900289 -1.04239807
| 46> C -3.34705016 -0.41079763 -0.04806362
| 47> C -4.52632050 0.36468657 0.01425847
| 48> C -4.41860979 1.76989160 -0.07850767
| 49> C -3.17603123 2.37115581 -0.23040674
| 50> C -1.99688809 1.60272707 -0.29078547
| 51> C -2.10952989 0.19976702 -0.19527347
| 52> N -5.78841718 -0.25273135 0.16685665
| 53> C -5.90794977 -1.46760391 0.89717064
| 54> C -6.84133221 -2.44629605 0.50255849
| 55> C -6.96005866 -3.63093430 1.22590003
| 56> C -6.15282723 -3.86517942 2.34171185
| 57> C -5.22443339 -2.89851636 2.73569840
| 58> C -5.10103382 -1.70530371 2.02738242
| 59> C -6.94833689 0.33604113 -0.40823221
| 60> C -8.19125232 0.24957554 0.24953148
| 61> C -9.32589549 0.82108772 -0.32192009
| 62> C -9.24395564 1.49100535 -1.54507387
| 63> C -8.01340274 1.58096903 -2.20024725
| 64> C -6.87212019 1.00653337 -1.64509859
| 65> H -8.26017739 -0.26037605 1.20625218
| 66> H -10.27874072 0.75115983 0.19622913
| 67> H -7.94322860 2.09305025 -3.15632825
| 68> H -5.92177981 1.06773718 -2.16789273
| 69> H -7.46442181 -2.27553751 -0.37078869
| 70> H -7.68105975 -4.38043181 0.91014859
| 71> H -6.24697916 -4.79215603 2.89967702
| 72> H -4.59850521 -3.06994536 3.60747876
| 73> H -4.38690694 -0.95226450 2.34851991
| 74> H -5.31228471 2.38419967 -0.01910110
| 75> H -3.11296876 3.45589000 -0.29191516
| 76> H -1.20888642 -0.40522264 -0.24984939
| 77> H -3.41230970 -1.49366069 0.00846343
| 78> H 8.29004561 -3.90055136 -1.29851834
| 79> H -10.13106706 1.93775884 -1.98428862
| 80> *
| 81> $new_job
| 82> #
| 83> !wB97X-D3 def2-TZVP def2/J RIJCOSX Grid5 FinalGrid6 TightSCF
| 84> %pal
| 85>  nprocs 24
| 86> end
| 87> %elprop
| 88>    dipole     true
| 89>    quadrupole true
| 90> end
| 91> %tddft
| 92>   Mode sTDDFT
| 93>   nroots 2
| 94>   Ethresh 10.0
| 95>   maxcore 5000
| 96> end
| 97> * xyz 0 1
| 98> C 8.35884587 1.89622727 2.14166813
| 99> C 7.41957674 1.28063854 1.31724991
|100> C 7.76098000 0.07921095 0.66944408
|101> C 9.04549758 -0.48378756 0.91242985
|102> C 9.99639730 0.13890890 1.73529544
|103> C 9.63503362 1.34061272 2.34041876
|104> C 7.06260610 -0.84721986 -0.20689333
|105> C 7.95003357 -1.94129196 -0.41466246
|106> N 9.14255846 -1.69096980 0.24190989
|107> C 7.59414192 -3.07874475 -1.15592502
|108> C 6.30423423 -3.11825011 -1.68285866
|109> C 5.41510514 -2.04924918 -1.50531324
|110> C 5.77214703 -0.88676677 -0.79746915
|111> H 4.42658026 -2.10493751 -1.95459322
|112> H 9.93750582 -2.31746144 0.27094692
|113> H 5.98312474 -3.98681107 -2.25141361
|114> H 6.43441865 1.72192485 1.19802446
|115> H 10.97402127 -0.30558300 1.90206197
|116> H 10.34514610 1.85068057 2.98590472
|117> H 8.10131173 2.82428476 2.64461512
|118> N 0.45203285 1.53869613 -0.49405786
|119> C 1.55665515 2.36747338 -0.64828305
|120> C 1.27076619 3.71969638 -0.72307246
|121> S -0.44918075 3.97933233 -0.59675761
|122> C -0.68171415 2.21621405 -0.44737887
|123> C 2.88034150 1.77297671 -0.71587344
|124> S 3.09093361 0.01729135 -0.59870665
|125> C 4.83280504 0.24016021 -0.73902433
|126> C 5.10364980 1.58959850 -0.88323371
|127> N 4.01858060 2.43611790 -0.86651471
|128> H 1.98173473 4.52629733 -0.84218601
|129> H 6.09884492 1.99900289 -1.04239807
|130> C -3.34705016 -0.41079763 -0.04806362
|131> C -4.52632050 0.36468657 0.01425847
|132> C -4.41860979 1.76989160 -0.07850767
|133> C -3.17603123 2.37115581 -0.23040674
|134> C -1.99688809 1.60272707 -0.29078547
|135> C -2.10952989 0.19976702 -0.19527347
|136> N -5.78841718 -0.25273135 0.16685665
|137> C -5.90794977 -1.46760391 0.89717064
|138> C -6.84133221 -2.44629605 0.50255849
|139> C -6.96005866 -3.63093430 1.22590003
|140> C -6.15282723 -3.86517942 2.34171185
|141> C -5.22443339 -2.89851636 2.73569840
|142> C -5.10103382 -1.70530371 2.02738242
|143> C -6.94833689 0.33604113 -0.40823221
|144> C -8.19125232 0.24957554 0.24953148
|145> C -9.32589549 0.82108772 -0.32192009
|146> C -9.24395564 1.49100535 -1.54507387
|147> C -8.01340274 1.58096903 -2.20024725
|148> C -6.87212019 1.00653337 -1.64509859
|149> H -8.26017739 -0.26037605 1.20625218
|150> H -10.27874072 0.75115983 0.19622913
|151> H -7.94322860 2.09305025 -3.15632825
|152> H -5.92177981 1.06773718 -2.16789273
|153> H -7.46442181 -2.27553751 -0.37078869
|154> H -7.68105975 -4.38043181 0.91014859
|155> H -6.24697916 -4.79215603 2.89967702
|156> H -4.59850521 -3.06994536 3.60747876
|157> H -4.38690694 -0.95226450 2.34851991
|158> H -5.31228471 2.38419967 -0.01910110
|159> H -3.11296876 3.45589000 -0.29191516
|160> H -1.20888642 -0.40522264 -0.24984939
|161> H -3.41230970 -1.49366069 0.00846343
|162> H 8.29004561 -3.90055136 -1.29851834
|163> H -10.13106706 1.93775884 -1.98428862
|164> *
|165>
|166>                          ****END OF INPUT****
 Total Charge           Charge          ....    0
 Multiplicity           Mult            ....    1
 Number of Electrons    NEL             ....  300
Dispersion correction           -0.032741081
FINAL SINGLE POINT ENERGY     -2401.817212571818

CARTESIAN COORDINATES (ANGSTROEM)
---------------------------------
  C      8.358846    1.896227    2.141668
  C      7.419577    1.280639    1.317250
  C      7.760980    0.079211    0.669444
  C      9.045498   -0.483788    0.912430
  C      9.996397    0.138909    1.735295
  C      9.635034    1.340613    2.340419
  C      7.062606   -0.847220   -0.206893
  C      7.950034   -1.941292   -0.414662
  N      9.142558   -1.690970    0.241910
  C      7.594142   -3.078745   -1.155925
  C      6.304234   -3.118250   -1.682859
  C      5.415105   -2.049249   -1.505313
  C      5.772147   -0.886767   -0.797469
  H      4.426580   -2.104938   -1.954593
  H      9.937506   -2.317461    0.270947
  H      5.983125   -3.986811   -2.251414
  H      6.434419    1.721925    1.198024
  H     10.974021   -0.305583    1.902062
  H     10.345146    1.850681    2.985905
  H      8.101312    2.824285    2.644615
  N      0.452033    1.538696   -0.494058
  C      1.556655    2.367473   -0.648283
  C      1.270766    3.719696   -0.723072
  S     -0.449181    3.979332   -0.596758
  C     -0.681714    2.216214   -0.447379
  C      2.880342    1.772977   -0.715873
  S      3.090934    0.017291   -0.598707
  C      4.832805    0.240160   -0.739024
  C      5.103650    1.589598   -0.883234
  N      4.018581    2.436118   -0.866515
  H      1.981735    4.526297   -0.842186
  H      6.098845    1.999003   -1.042398
  C     -3.347050   -0.410798   -0.048064
  C     -4.526320    0.364687    0.014258
  C     -4.418610    1.769892   -0.078508
  C     -3.176031    2.371156   -0.230407
  C     -1.996888    1.602727   -0.290785
  C     -2.109530    0.199767   -0.195273
  N     -5.788417   -0.252731    0.166857
  C     -5.907950   -1.467604    0.897171
  C     -6.841332   -2.446296    0.502558
  C     -6.960059   -3.630934    1.225900
  C     -6.152827   -3.865179    2.341712
  C     -5.224433   -2.898516    2.735698
  C     -5.101034   -1.705304    2.027382
  C     -6.948337    0.336041   -0.408232
  C     -8.191252    0.249576    0.249531
  C     -9.325895    0.821088   -0.321920
  C     -9.243956    1.491005   -1.545074
  C     -8.013403    1.580969   -2.200247
  C     -6.872120    1.006533   -1.645099
  H     -8.260177   -0.260376    1.206252
  H    -10.278741    0.751160    0.196229
  H     -7.943229    2.093050   -3.156328
  H     -5.921780    1.067737   -2.167893
  H     -7.464422   -2.275538   -0.370789
  H     -7.681060   -4.380432    0.910149
  H     -6.246979   -4.792156    2.899677
  H     -4.598505   -3.069945    3.607479
  H     -4.386907   -0.952264    2.348520
  H     -5.312285    2.384200   -0.019101
  H     -3.112969    3.455890   -0.291915
  H     -1.208886   -0.405223   -0.249849
  H     -3.412310   -1.493661    0.008463
  H      8.290046   -3.900551   -1.298518
  H    -10.131067    1.937759   -1.984289

 Multiplicity           Mult            ....    1
 Number of Electrons    NEL             ....  300
 Basis Dimension        Dim             .... 1458

ORBITAL ENERGIES
----------------

  NO   OCC          E(Eh)            E(eV)
   0   2.0000     -88.993090     -2421.6251
   1   2.0000     -88.982755     -2421.3439
   2   2.0000     -14.468633      -393.7115
   3   2.0000     -14.466992      -393.6669
   4   2.0000     -14.432712      -392.7341
   5   2.0000     -14.425585      -392.5401
   6   2.0000     -10.364629      -282.0359
   7   2.0000     -10.354569      -281.7621
   8   2.0000     -10.342370      -281.4302
   9   2.0000     -10.336059      -281.2585
  10   2.0000     -10.335597      -281.2459
  11   2.0000     -10.333014      -281.1756
  12   2.0000     -10.327810      -281.0340
  13   2.0000     -10.324708      -280.9496
  14   2.0000     -10.321855      -280.8719
  15   2.0000     -10.320993      -280.8485
  16   2.0000     -10.309413      -280.5334
  17   2.0000     -10.309203      -280.5277
  18   2.0000     -10.305341      -280.4226
  19   2.0000     -10.300697      -280.2962
  20   2.0000     -10.294673      -280.1323
  21   2.0000     -10.293850      -280.1099
  22   2.0000     -10.292162      -280.0640
  23   2.0000     -10.290566      -280.0206
  24   2.0000     -10.290461      -280.0177
  25   2.0000     -10.290334      -280.0142
  26   2.0000     -10.289959      -280.0040
  27   2.0000     -10.289899      -280.0024
  28   2.0000     -10.288771      -279.9717
  29   2.0000     -10.288436      -279.9626
  30   2.0000     -10.288413      -279.9619
  31   2.0000     -10.288117      -279.9539
  32   2.0000     -10.287849      -279.9466
  33   2.0000     -10.287724      -279.9432
  34   2.0000     -10.287370      -279.9336
  35   2.0000     -10.285401      -279.8800
  36   2.0000     -10.284658      -279.8598
  37   2.0000     -10.284095      -279.8444
  38   2.0000     -10.283595      -279.8308
  39   2.0000     -10.282420      -279.7989
  40   2.0000     -10.280235      -279.7394
  41   2.0000     -10.273963      -279.5688
  42   2.0000      -8.089488      -220.1261
  43   2.0000      -8.078908      -219.8383
  44   2.0000      -6.042613      -164.4279
  45   2.0000      -6.038563      -164.3176
  46   2.0000      -6.036765      -164.2687
  47   2.0000      -6.031985      -164.1387
  48   2.0000      -6.027988      -164.0299
  49   2.0000      -6.026214      -163.9816
  50   2.0000      -1.103644       -30.0317
  51   2.0000      -1.098008       -29.8783
  52   2.0000      -1.087796       -29.6004
  53   2.0000      -1.067779       -29.0558
  54   2.0000      -0.988646       -26.9024
  55   2.0000      -0.982439       -26.7335
  56   2.0000      -0.975720       -26.5507
  57   2.0000      -0.965545       -26.2738
  58   2.0000      -0.964316       -26.2404
  59   2.0000      -0.920024       -25.0351
  60   2.0000      -0.915208       -24.9041
  61   2.0000      -0.911089       -24.7920
  62   2.0000      -0.897936       -24.4341
  63   2.0000      -0.885667       -24.1002
  64   2.0000      -0.882410       -24.0116
  65   2.0000      -0.870681       -23.6924
  66   2.0000      -0.869453       -23.6590
  67   2.0000      -0.866777       -23.5862
  68   2.0000      -0.864996       -23.5377
  69   2.0000      -0.847936       -23.0735
  70   2.0000      -0.838916       -22.8281
  71   2.0000      -0.834992       -22.7213
  72   2.0000      -0.813705       -22.1420
  73   2.0000      -0.765960       -20.8428
  74   2.0000      -0.755294       -20.5526
  75   2.0000      -0.750440       -20.4205
  76   2.0000      -0.731570       -19.9070
  77   2.0000      -0.725402       -19.7392
  78   2.0000      -0.719688       -19.5837
  79   2.0000      -0.717492       -19.5240
  80   2.0000      -0.716415       -19.4947
  81   2.0000      -0.708166       -19.2702
  82   2.0000      -0.707595       -19.2546
  83   2.0000      -0.693311       -18.8660
  84   2.0000      -0.679081       -18.4787
  85   2.0000      -0.663767       -18.0620
  86   2.0000      -0.648453       -17.6453
  87   2.0000      -0.646450       -17.5908
  88   2.0000      -0.641753       -17.4630
  89   2.0000      -0.636025       -17.3071
  90   2.0000      -0.619790       -16.8654
  91   2.0000      -0.610951       -16.6248
  92   2.0000      -0.610434       -16.6108
  93   2.0000      -0.592235       -16.1155
  94   2.0000      -0.589842       -16.0504
  95   2.0000      -0.583131       -15.8678
  96   2.0000      -0.575888       -15.6707
  97   2.0000      -0.565516       -15.3885
  98   2.0000      -0.563649       -15.3377
  99   2.0000      -0.561029       -15.2664
 100   2.0000      -0.556613       -15.1462
 101   2.0000      -0.552679       -15.0392
 102   2.0000      -0.547109       -14.8876
 103   2.0000      -0.542816       -14.7708
 104   2.0000      -0.540862       -14.7176
 105   2.0000      -0.535597       -14.5743
 106   2.0000      -0.532666       -14.4946
 107   2.0000      -0.532426       -14.4880
 108   2.0000      -0.529529       -14.4092
 109   2.0000      -0.528214       -14.3734
 110   2.0000      -0.527230       -14.3467
 111   2.0000      -0.525905       -14.3106
 112   2.0000      -0.522723       -14.2240
 113   2.0000      -0.515891       -14.0381
 114   2.0000      -0.509829       -13.8731
 115   2.0000      -0.506132       -13.7725
 116   2.0000      -0.490905       -13.3582
 117   2.0000      -0.482647       -13.1335
 118   2.0000      -0.481636       -13.1060
 119   2.0000      -0.479803       -13.0561
 120   2.0000      -0.474432       -12.9099
 121   2.0000      -0.467609       -12.7243
 122   2.0000      -0.466142       -12.6844
 123   2.0000      -0.462815       -12.5938
 124   2.0000      -0.460409       -12.5284
 125   2.0000      -0.457560       -12.4508
 126   2.0000      -0.453522       -12.3410
 127   2.0000      -0.447833       -12.1861
 128   2.0000      -0.442095       -12.0300
 129   2.0000      -0.441840       -12.0231
 130   2.0000      -0.440324       -11.9818
 131   2.0000      -0.436777       -11.8853
 132   2.0000      -0.431301       -11.7363
 133   2.0000      -0.425499       -11.5784
 134   2.0000      -0.392670       -10.6851
 135   2.0000      -0.384915       -10.4741
 136   2.0000      -0.378333       -10.2950
 137   2.0000      -0.376775       -10.2526
 138   2.0000      -0.369718       -10.0605
 139   2.0000      -0.366054        -9.9608
 140   2.0000      -0.358730        -9.7615
 141   2.0000      -0.354536        -9.6474
 142   2.0000      -0.350518        -9.5381
 143   2.0000      -0.345996        -9.4150
 144   2.0000      -0.344568        -9.3762
 145   2.0000      -0.332527        -9.0485
 146   2.0000      -0.306886        -8.3508
 147   2.0000      -0.294855        -8.0234
 148   2.0000      -0.279778        -7.6131
 149   2.0000      -0.264735        -7.2038
 150   0.0000      -0.002926        -0.0796
 151   0.0000       0.004735         0.1288
 152   0.0000       0.033333         0.9070
 153   0.0000       0.038943         1.0597
 154   0.0000       0.041457         1.1281

MULLIKEN ATOMIC CHARGES
-----------------------
   0 C :   -0.157258
   1 C :   -0.220116
   2 C :   -0.041643
   3 C :    0.174329
   4 C :   -0.229298
   5 C :   -0.090194
   6 C :   -0.016086
   7 C :    0.185826
   8 N :   -0.300116
   9 C :   -0.246254
  10 C :   -0.080551
  11 C :   -0.280911
  12 C :    0.203111
  13 H :    0.132141
  14 H :    0.235806
  15 H :    0.122948
  16 H :    0.209858
  17 H :    0.113706
  18 H :    0.121886
  19 H :    0.120168
  20 N :   -0.328886
  21 C :    0.101425
  22 C :   -0.206761
  23 S :    0.053337
  24 C :    0.265169
  25 C :    0.126319
  26 S :    0.053809
  27 C :    0.037046
  28 C :   -0.220273
  29 N :   -0.274744
  30 H :    0.181646
  31 H :    0.188689
  32 C :   -0.273825
  33 C :    0.209740
  34 C :   -0.329954
  35 C :   -0.109601
  36 C :   -0.036447
  37 C :   -0.173922
  38 N :    0.058426
  39 C :    0.209482
  40 C :   -0.306947
  41 C :   -0.068244
  42 C :   -0.161694
  43 C :   -0.070817
  44 C :   -0.309525
  45 C :    0.212235
  46 C :   -0.304387
  47 C :   -0.071107
  48 C :   -0.162210
  49 C :   -0.067639
  50 C :   -0.316359
  51 H :    0.161641
  52 H :    0.127025
  53 H :    0.127311
  54 H :    0.162268
  55 H :    0.161235
  56 H :    0.126701
  57 H :    0.124235
  58 H :    0.129028
  59 H :    0.162102
  60 H :    0.163649
  61 H :    0.133571
  62 H :    0.156037
  63 H :    0.163878
  64 H :    0.115155
  65 H :    0.124832
Sum of atomic charges:   -0.0000000

LOEWDIN ATOMIC CHARGES
----------------------
   0 C :   -0.158616
   1 C :   -0.104752
   2 C :   -0.081161
   3 C :   -0.145500
   4 C :   -0.133380
   5 C :   -0.142493
   6 C :   -0.041534
   7 C :   -0.143977
   8 N :    0.199975
   9 C :   -0.130485
  10 C :   -0.141269
  11 C :   -0.125646
  12 C :   -0.109857
  13 H :    0.146250
  14 H :    0.192815
  15 H :    0.146439
  16 H :    0.154604
  17 H :    0.142926
  18 H :    0.144488
  19 H :    0.144040
  20 N :    0.131523
  21 C :   -0.286658
  22 C :   -0.342906
  23 S :    0.692760
  24 C :   -0.363359
  25 C :   -0.391922
  26 S :    0.744239
  27 C :   -0.323675
  28 C :   -0.233514
  29 N :    0.106909
  30 H :    0.139846
  31 H :    0.147616
  32 C :   -0.111521
  33 C :   -0.155007
  34 C :   -0.114382
  35 C :   -0.103917
  36 C :   -0.161633
  37 C :   -0.078201
  38 N :    0.278274
  39 C :   -0.164116
  40 C :   -0.114832
  41 C :   -0.140164
  42 C :   -0.151340
  43 C :   -0.139730
  44 C :   -0.116126
  45 C :   -0.164027
  46 C :   -0.114626
  47 C :   -0.140137
  48 C :   -0.151792
  49 C :   -0.140403
  50 C :   -0.116770
  51 H :    0.156726
  52 H :    0.146466
  53 H :    0.146542
  54 H :    0.156413
  55 H :    0.156614
  56 H :    0.146393
  57 H :    0.143687
  58 H :    0.146832
  59 H :    0.156622
  60 H :    0.158766
  61 H :    0.147140
  62 H :    0.158240
  63 H :    0.159169
  64 H :    0.143434
  65 H :    0.143679

  Mayer bond orders larger than 0.1
B(  0-C ,  1-C ) :   1.5341 B(  0-C ,  5-C ) :   1.3589 B(  0-C , 19-H ) :   0.9843
B(  1-C ,  2-C ) :   1.2804 B(  1-C , 16-H ) :   0.9195 B(  2-C ,  3-C ) :   1.3721
B(  2-C ,  6-C ) :   1.0515 B(  3-C ,  4-C ) :   1.3056 B(  3-C ,  8-N ) :   1.1214
B(  4-C ,  5-C ) :   1.4798 B(  4-C , 17-H ) :   0.9791 B(  5-C , 18-H ) :   0.9823
B(  6-C ,  7-C ) :   1.3300 B(  6-C , 12-C ) :   1.2162 B(  7-C ,  8-N ) :   1.1491
B(  7-C ,  9-C ) :   1.2800 B(  8-N , 14-H ) :   0.9129 B(  9-C , 10-C ) :   1.4652
B(  9-C , 64-H ) :   0.9810 B( 10-C , 11-C ) :   1.4047 B( 10-C , 15-H ) :   0.9833
B( 11-C , 12-C ) :   1.4314 B( 11-C , 13-H ) :   0.9606 B( 12-C , 27-C ) :   0.8332
B( 20-N , 21-C ) :   1.2102 B( 20-N , 24-C ) :   1.6613 B( 21-C , 22-C ) :   1.6954
B( 21-C , 25-C ) :   0.9812 B( 22-C , 23-S ) :   1.2696 B( 22-C , 30-H ) :   0.9136
B( 23-S , 24-C ) :   1.2520 B( 24-C , 36-C ) :   0.9911 B( 25-C , 26-S ) :   1.3296
B( 25-C , 29-N ) :   1.6252 B( 26-S , 27-C ) :   1.2662 B( 27-C , 28-C ) :   1.5809
B( 28-C , 29-N ) :   1.3161 B( 28-C , 31-H ) :   0.9732 B( 32-C , 33-C ) :   1.3188
B( 32-C , 37-C ) :   1.4651 B( 32-C , 63-H ) :   0.9808 B( 33-C , 34-C ) :   1.3358
B( 33-C , 38-N ) :   1.0735 B( 34-C , 35-C ) :   1.4936 B( 34-C , 60-H ) :   0.9752
B( 35-C , 36-C ) :   1.3120 B( 35-C , 61-H ) :   0.9571 B( 36-C , 37-C ) :   1.4113
B( 37-C , 62-H ) :   0.9584 B( 38-N , 39-C ) :   1.0171 B( 38-N , 45-C ) :   1.0169
B( 39-C , 40-C ) :   1.3567 B( 39-C , 44-C ) :   1.3428 B( 40-C , 41-C ) :   1.4334
B( 40-C , 55-H ) :   0.9696 B( 41-C , 42-C ) :   1.3963 B( 41-C , 56-H ) :   0.9797
B( 42-C , 43-C ) :   1.4006 B( 42-C , 57-H ) :   0.9820 B( 43-C , 44-C ) :   1.4346
B( 43-C , 58-H ) :   0.9773 B( 44-C , 59-H ) :   0.9709 B( 45-C , 46-C ) :   1.3553
B( 45-C , 50-C ) :   1.3412 B( 46-C , 47-C ) :   1.4320 B( 46-C , 51-H ) :   0.9693
B( 47-C , 48-C ) :   1.3981 B( 47-C , 52-H ) :   0.9800 B( 48-C , 49-C ) :   1.3990
B( 48-C , 65-H ) :   0.9818 B( 49-C , 50-C ) :   1.4306 B( 49-C , 53-H ) :   0.9796
B( 50-C , 54-H ) :   0.9726

Dispersion correction           -0.032741081
FINAL SINGLE POINT ENERGY     -2401.817212517133

DIPOLE MOMENT
-------------
                                X             Y             Z
Electronic contribution:     20.74702      10.29005      -4.93818
Nuclear contribution   :    -21.00688     -11.08640       5.08934
                        -----------------------------------------
Total Dipole Moment    :     -0.25986      -0.79635       0.15117
                        -----------------------------------------
Magnitude (a.u.)       :      0.85120
Magnitude (Debye)      :      2.16359

                             ****ORCA TERMINATED NORMALLY****
TOTAL RUN TIME: 0 days 0 hours 21 minutes 27 seconds 530 msec
