                         Program Version 4.0.0 -  RELEASE  -
|  1> #
|  2> !wB97X-D3 def2-TZVP def2/J RIJCOSX Grid5 FinalGrid6 TightSCF
|  3> %pal
|  4>  nprocs 24
|  5> end
|  6> %tddft
|  7>   Mode sTDDFT
|  8>   nroots 2
|  9>   Ethresh 10.0
| 10>   maxcore 5000
| 11>   triplets true
| 12> end
| 13> * xyz 0 1
| 14> C 6.06838965 1.46370459 -0.93528551
| 15> C 5.00559240 0.69153291 -0.47416644
| 16> C 5.25890030 -0.34207632 0.44807352
| 17> C 6.59879806 -0.54833962 0.88145188
| 18> C 7.67272061 0.22396570 0.41294556
| 19> C 7.38639452 1.23258954 -0.50328174
| 20> C 4.44006865 -1.31288111 1.15737701
| 21> C 5.33393268 -2.04145023 1.99793087
| 22> N 6.62198389 -1.57967960 1.80397714
| 23> C 4.91038485 -3.04437861 2.88210200
| 24> C 3.54449247 -3.31456339 2.93705919
| 25> C 2.64149365 -2.61593945 2.12670361
| 26> C 3.05312490 -1.62466312 1.21424571
| 27> H 1.58454866 -2.86593747 2.18519265
| 28> H 7.44463389 -1.91943156 2.28688065
| 29> H 3.17188087 -4.07866303 3.61316952
| 30> H 3.99752858 0.88659565 -0.82790665
| 31> H 8.68747378 0.04323408 0.75725466
| 32> H 8.19216910 1.85172850 -0.88862402
| 33> H 5.87805192 2.26143476 -1.64792656
| 34> S -2.70868265 0.14514917 -0.11255730
| 35> C -3.60595224 0.94955090 -1.42045622
| 36> N -2.81948313 1.29020123 -2.44378761
| 37> N -1.51607579 0.95836394 -2.27931279
| 38> C -1.26892852 0.35060271 -1.11868632
| 39> C 0.04246992 -0.09962481 -0.70891162
| 40> N 1.14335646 0.02909387 -1.43942135
| 41> N 2.25755298 -0.47339746 -0.83329509
| 42> C 2.03980325 -0.98938176 0.36758521
| 43> S 0.32574579 -0.89433377 0.85014546
| 44> C -5.99064578 -0.14515288 1.80981447
| 45> N -5.23649376 0.20238968 0.78567470
| 46> C -5.83559844 0.83533604 -0.28649443
| 47> C -7.26632456 1.09844916 -0.25693788
| 48> N -8.02649044 0.71582216 0.84222746
| 49> C -7.40348361 0.11638897 1.83509894
| 50> C -5.03183365 1.21104881 -1.38910912
| 51> C -5.68240511 1.87437777 -2.50284896
| 52> C -7.13735911 2.13490571 -2.45824505
| 53> C -7.89951302 1.73545686 -1.32358805
| 54> N -7.68028270 2.74783980 -3.51090687
| 55> S -6.30347880 3.05626103 -4.70374983
| 56> N -5.03519047 2.27326189 -3.58989220
| 57> H -7.99940595 -0.18748816 2.70494043
| 58> H -5.50474408 -0.64683262 2.65543357
| 59> H 5.61933428 -3.58089722 3.50633164
| 60> H -8.96835429 1.92602672 -1.28932426
| 61> *
| 62> $new_job
| 63> #
| 64> !wB97X-D3 def2-TZVP def2/J RIJCOSX Grid5 FinalGrid6 TightSCF
| 65> %pal
| 66>  nprocs 24
| 67> end
| 68> %elprop
| 69>    dipole     true
| 70>    quadrupole true
| 71> end
| 72> %tddft
| 73>   Mode sTDDFT
| 74>   nroots 2
| 75>   Ethresh 10.0
| 76>   maxcore 5000
| 77> end
| 78> * xyz 0 1
| 79> C 6.06838965 1.46370459 -0.93528551
| 80> C 5.00559240 0.69153291 -0.47416644
| 81> C 5.25890030 -0.34207632 0.44807352
| 82> C 6.59879806 -0.54833962 0.88145188
| 83> C 7.67272061 0.22396570 0.41294556
| 84> C 7.38639452 1.23258954 -0.50328174
| 85> C 4.44006865 -1.31288111 1.15737701
| 86> C 5.33393268 -2.04145023 1.99793087
| 87> N 6.62198389 -1.57967960 1.80397714
| 88> C 4.91038485 -3.04437861 2.88210200
| 89> C 3.54449247 -3.31456339 2.93705919
| 90> C 2.64149365 -2.61593945 2.12670361
| 91> C 3.05312490 -1.62466312 1.21424571
| 92> H 1.58454866 -2.86593747 2.18519265
| 93> H 7.44463389 -1.91943156 2.28688065
| 94> H 3.17188087 -4.07866303 3.61316952
| 95> H 3.99752858 0.88659565 -0.82790665
| 96> H 8.68747378 0.04323408 0.75725466
| 97> H 8.19216910 1.85172850 -0.88862402
| 98> H 5.87805192 2.26143476 -1.64792656
| 99> S -2.70868265 0.14514917 -0.11255730
|100> C -3.60595224 0.94955090 -1.42045622
|101> N -2.81948313 1.29020123 -2.44378761
|102> N -1.51607579 0.95836394 -2.27931279
|103> C -1.26892852 0.35060271 -1.11868632
|104> C 0.04246992 -0.09962481 -0.70891162
|105> N 1.14335646 0.02909387 -1.43942135
|106> N 2.25755298 -0.47339746 -0.83329509
|107> C 2.03980325 -0.98938176 0.36758521
|108> S 0.32574579 -0.89433377 0.85014546
|109> C -5.99064578 -0.14515288 1.80981447
|110> N -5.23649376 0.20238968 0.78567470
|111> C -5.83559844 0.83533604 -0.28649443
|112> C -7.26632456 1.09844916 -0.25693788
|113> N -8.02649044 0.71582216 0.84222746
|114> C -7.40348361 0.11638897 1.83509894
|115> C -5.03183365 1.21104881 -1.38910912
|116> C -5.68240511 1.87437777 -2.50284896
|117> C -7.13735911 2.13490571 -2.45824505
|118> C -7.89951302 1.73545686 -1.32358805
|119> N -7.68028270 2.74783980 -3.51090687
|120> S -6.30347880 3.05626103 -4.70374983
|121> N -5.03519047 2.27326189 -3.58989220
|122> H -7.99940595 -0.18748816 2.70494043
|123> H -5.50474408 -0.64683262 2.65543357
|124> H 5.61933428 -3.58089722 3.50633164
|125> H -8.96835429 1.92602672 -1.28932426
|126> *
|127>
|128>                          ****END OF INPUT****
 Total Charge           Charge          ....    0
 Multiplicity           Mult            ....    1
 Number of Electrons    NEL             ....  266
Dispersion correction           -0.022466510
FINAL SINGLE POINT ENERGY     -2608.507631663173

CARTESIAN COORDINATES (ANGSTROEM)
---------------------------------
  C      6.068390    1.463705   -0.935286
  C      5.005592    0.691533   -0.474166
  C      5.258900   -0.342076    0.448074
  C      6.598798   -0.548340    0.881452
  C      7.672721    0.223966    0.412946
  C      7.386395    1.232590   -0.503282
  C      4.440069   -1.312881    1.157377
  C      5.333933   -2.041450    1.997931
  N      6.621984   -1.579680    1.803977
  C      4.910385   -3.044379    2.882102
  C      3.544492   -3.314563    2.937059
  C      2.641494   -2.615939    2.126704
  C      3.053125   -1.624663    1.214246
  H      1.584549   -2.865937    2.185193
  H      7.444634   -1.919432    2.286881
  H      3.171881   -4.078663    3.613170
  H      3.997529    0.886596   -0.827907
  H      8.687474    0.043234    0.757255
  H      8.192169    1.851729   -0.888624
  H      5.878052    2.261435   -1.647927
  S     -2.708683    0.145149   -0.112557
  C     -3.605952    0.949551   -1.420456
  N     -2.819483    1.290201   -2.443788
  N     -1.516076    0.958364   -2.279313
  C     -1.268929    0.350603   -1.118686
  C      0.042470   -0.099625   -0.708912
  N      1.143356    0.029094   -1.439421
  N      2.257553   -0.473397   -0.833295
  C      2.039803   -0.989382    0.367585
  S      0.325746   -0.894334    0.850145
  C     -5.990646   -0.145153    1.809814
  N     -5.236494    0.202390    0.785675
  C     -5.835598    0.835336   -0.286494
  C     -7.266325    1.098449   -0.256938
  N     -8.026490    0.715822    0.842227
  C     -7.403484    0.116389    1.835099
  C     -5.031834    1.211049   -1.389109
  C     -5.682405    1.874378   -2.502849
  C     -7.137359    2.134906   -2.458245
  C     -7.899513    1.735457   -1.323588
  N     -7.680283    2.747840   -3.510907
  S     -6.303479    3.056261   -4.703750
  N     -5.035190    2.273262   -3.589892
  H     -7.999406   -0.187488    2.704940
  H     -5.504744   -0.646833    2.655434
  H      5.619334   -3.580897    3.506332
  H     -8.968354    1.926027   -1.289324

 Multiplicity           Mult            ....    1
 Number of Electrons    NEL             ....  266
 Basis Dimension        Dim             .... 1200

ORBITAL ENERGIES
----------------

  NO   OCC          E(Eh)            E(eV)
   0   2.0000     -89.047957     -2423.1181
   1   2.0000     -89.007835     -2422.0263
   2   2.0000     -89.007125     -2422.0070
   3   2.0000     -14.493667      -394.3927
   4   2.0000     -14.489526      -394.2800
   5   2.0000     -14.480278      -394.0284
   6   2.0000     -14.477806      -393.9611
   7   2.0000     -14.470982      -393.7754
   8   2.0000     -14.467802      -393.6889
   9   2.0000     -14.464001      -393.5855
  10   2.0000     -14.463711      -393.5776
  11   2.0000     -14.463605      -393.5747
  12   2.0000     -10.376270      -282.3527
  13   2.0000     -10.375352      -282.3277
  14   2.0000     -10.375344      -282.3275
  15   2.0000     -10.374539      -282.3056
  16   2.0000     -10.371238      -282.2157
  17   2.0000     -10.370205      -282.1876
  18   2.0000     -10.367756      -282.1210
  19   2.0000     -10.365540      -282.0607
  20   2.0000     -10.365218      -282.0519
  21   2.0000     -10.363651      -282.0093
  22   2.0000     -10.351431      -281.6768
  23   2.0000     -10.335434      -281.2415
  24   2.0000     -10.331541      -281.1355
  25   2.0000     -10.325791      -280.9791
  26   2.0000     -10.321691      -280.8675
  27   2.0000     -10.305806      -280.4352
  28   2.0000     -10.300312      -280.2857
  29   2.0000     -10.297269      -280.2029
  30   2.0000     -10.296138      -280.1722
  31   2.0000     -10.288634      -279.9680
  32   2.0000     -10.283815      -279.8368
  33   2.0000     -10.282795      -279.8091
  34   2.0000     -10.276466      -279.6369
  35   2.0000     -10.269710      -279.4530
  36   2.0000      -8.136220      -221.3978
  37   2.0000      -8.104586      -220.5370
  38   2.0000      -8.102688      -220.4854
  39   2.0000      -6.091816      -165.7667
  40   2.0000      -6.085302      -165.5895
  41   2.0000      -6.082226      -165.5058
  42   2.0000      -6.057476      -164.8323
  43   2.0000      -6.055848      -164.7880
  44   2.0000      -6.053844      -164.7335
  45   2.0000      -6.051782      -164.6774
  46   2.0000      -6.051749      -164.6765
  47   2.0000      -6.049841      -164.6245
  48   2.0000      -1.154107       -31.4049
  49   2.0000      -1.145684       -31.1756
  50   2.0000      -1.132202       -30.8088
  51   2.0000      -1.108225       -30.1563
  52   2.0000      -1.101439       -29.9717
  53   2.0000      -1.061929       -28.8966
  54   2.0000      -1.014885       -27.6164
  55   2.0000      -0.993943       -27.0466
  56   2.0000      -0.990279       -26.9469
  57   2.0000      -0.973162       -26.4811
  58   2.0000      -0.963029       -26.2054
  59   2.0000      -0.943070       -25.6622
  60   2.0000      -0.939163       -25.5559
  61   2.0000      -0.912023       -24.8174
  62   2.0000      -0.901991       -24.5444
  63   2.0000      -0.894850       -24.3501
  64   2.0000      -0.885636       -24.0994
  65   2.0000      -0.874646       -23.8003
  66   2.0000      -0.846546       -23.0357
  67   2.0000      -0.841311       -22.8932
  68   2.0000      -0.827989       -22.5307
  69   2.0000      -0.793349       -21.5881
  70   2.0000      -0.775214       -21.0946
  71   2.0000      -0.770823       -20.9752
  72   2.0000      -0.762985       -20.7619
  73   2.0000      -0.751904       -20.4603
  74   2.0000      -0.729258       -19.8441
  75   2.0000      -0.724735       -19.7210
  76   2.0000      -0.713064       -19.4035
  77   2.0000      -0.697148       -18.9704
  78   2.0000      -0.688056       -18.7230
  79   2.0000      -0.668725       -18.1969
  80   2.0000      -0.660683       -17.9781
  81   2.0000      -0.655125       -17.8268
  82   2.0000      -0.650693       -17.7063
  83   2.0000      -0.628885       -17.1128
  84   2.0000      -0.623216       -16.9586
  85   2.0000      -0.616857       -16.7855
  86   2.0000      -0.599345       -16.3090
  87   2.0000      -0.590591       -16.0708
  88   2.0000      -0.584537       -15.9061
  89   2.0000      -0.580288       -15.7904
  90   2.0000      -0.575953       -15.6725
  91   2.0000      -0.565480       -15.3875
  92   2.0000      -0.562952       -15.3187
  93   2.0000      -0.555192       -15.1075
  94   2.0000      -0.552140       -15.0245
  95   2.0000      -0.549573       -14.9546
  96   2.0000      -0.544308       -14.8114
  97   2.0000      -0.542784       -14.7699
  98   2.0000      -0.536908       -14.6100
  99   2.0000      -0.533939       -14.5292
 100   2.0000      -0.529098       -14.3975
 101   2.0000      -0.524195       -14.2641
 102   2.0000      -0.523208       -14.2372
 103   2.0000      -0.518228       -14.1017
 104   2.0000      -0.509967       -13.8769
 105   2.0000      -0.497802       -13.5459
 106   2.0000      -0.483336       -13.1522
 107   2.0000      -0.478015       -13.0075
 108   2.0000      -0.471822       -12.8389
 109   2.0000      -0.468771       -12.7559
 110   2.0000      -0.453023       -12.3274
 111   2.0000      -0.450764       -12.2659
 112   2.0000      -0.445604       -12.1255
 113   2.0000      -0.443070       -12.0566
 114   2.0000      -0.436985       -11.8910
 115   2.0000      -0.434058       -11.8113
 116   2.0000      -0.429389       -11.6843
 117   2.0000      -0.415358       -11.3025
 118   2.0000      -0.414355       -11.2752
 119   2.0000      -0.404410       -11.0045
 120   2.0000      -0.398694       -10.8490
 121   2.0000      -0.393423       -10.7056
 122   2.0000      -0.389993       -10.6122
 123   2.0000      -0.382152       -10.3989
 124   2.0000      -0.377283       -10.2664
 125   2.0000      -0.370742       -10.0884
 126   2.0000      -0.364459        -9.9174
 127   2.0000      -0.361462        -9.8359
 128   2.0000      -0.347579        -9.4581
 129   2.0000      -0.337363        -9.1801
 130   2.0000      -0.307231        -8.3602
 131   2.0000      -0.298946        -8.1347
 132   2.0000      -0.289103        -7.8669
 133   0.0000      -0.097939        -2.6651
 134   0.0000      -0.028446        -0.7741
 135   0.0000      -0.003712        -0.1010
 136   0.0000       0.009956         0.2709
 137   0.0000       0.017560         0.4778

MULLIKEN ATOMIC CHARGES
-----------------------
   0 C :   -0.176098
   1 C :   -0.132347
   2 C :   -0.035563
   3 C :    0.173551
   4 C :   -0.240687
   5 C :   -0.076041
   6 C :   -0.026575
   7 C :    0.182831
   8 N :   -0.304717
   9 C :   -0.220586
  10 C :   -0.099717
  11 C :   -0.271789
  12 C :    0.129327
  13 H :    0.123556
  14 H :    0.236875
  15 H :    0.125658
  16 H :    0.164282
  17 H :    0.113665
  18 H :    0.122396
  19 H :    0.122119
  20 S :    0.036655
  21 C :    0.130122
  22 N :   -0.058048
  23 N :   -0.182900
  24 C :    0.092256
  25 C :    0.108692
  26 N :   -0.127009
  27 N :   -0.176710
  28 C :    0.175890
  29 S :   -0.005146
  30 C :   -0.009033
  31 N :   -0.316070
  32 C :    0.191519
  33 C :    0.125536
  34 N :   -0.224591
  35 C :   -0.001964
  36 C :    0.021058
  37 C :    0.042096
  38 C :    0.129920
  39 C :   -0.272798
  40 N :   -0.224842
  41 S :    0.235112
  42 N :   -0.181575
  43 H :    0.151698
  44 H :    0.152002
  45 H :    0.120713
  46 H :    0.157277
Sum of atomic charges:   -0.0000000

LOEWDIN ATOMIC CHARGES
----------------------
   0 C :   -0.156140
   1 C :   -0.090123
   2 C :   -0.078085
   3 C :   -0.144438
   4 C :   -0.136809
   5 C :   -0.138112
   6 C :   -0.027400
   7 C :   -0.143244
   8 N :    0.201574
   9 C :   -0.118200
  10 C :   -0.143068
  11 C :   -0.125319
  12 C :   -0.116470
  13 H :    0.143902
  14 H :    0.193570
  15 H :    0.147315
  16 H :    0.155274
  17 H :    0.142460
  18 H :    0.144683
  19 H :    0.144998
  20 S :    0.715000
  21 C :   -0.384623
  22 N :    0.072879
  23 N :    0.067713
  24 C :   -0.459043
  25 C :   -0.456775
  26 N :    0.072323
  27 N :    0.054297
  28 C :   -0.373672
  29 S :    0.697101
  30 C :   -0.175256
  31 N :    0.162479
  32 C :   -0.133283
  33 C :   -0.170829
  34 N :    0.181906
  35 C :   -0.189584
  36 C :   -0.079183
  37 C :   -0.218580
  38 C :   -0.264832
  39 C :   -0.040828
  40 N :   -0.069312
  41 S :    0.564763
  42 N :   -0.033997
  43 H :    0.146979
  44 H :    0.147943
  45 H :    0.145689
  46 H :    0.164359

  Mayer bond orders larger than 0.1
B(  0-C ,  1-C ) :   1.5409 B(  0-C ,  5-C ) :   1.3520 B(  0-C , 19-H ) :   0.9850
B(  1-C ,  2-C ) :   1.2658 B(  1-C , 16-H ) :   0.9330 B(  2-C ,  3-C ) :   1.3514
B(  2-C ,  6-C ) :   1.0958 B(  3-C ,  4-C ) :   1.3071 B(  3-C ,  8-N ) :   1.1123
B(  4-C ,  5-C ) :   1.4838 B(  4-C , 17-H ) :   0.9751 B(  5-C , 18-H ) :   0.9806
B(  6-C ,  7-C ) :   1.3213 B(  6-C , 12-C ) :   1.2420 B(  7-C ,  8-N ) :   1.1558
B(  7-C ,  9-C ) :   1.2884 B(  8-N , 14-H ) :   0.9129 B(  9-C , 10-C ) :   1.4675
B(  9-C , 45-H ) :   0.9714 B( 10-C , 11-C ) :   1.4191 B( 10-C , 15-H ) :   0.9818
B( 11-C , 12-C ) :   1.4027 B( 11-C , 13-H ) :   0.9618 B( 12-C , 28-C ) :   0.9382
B( 20-S , 21-C ) :   1.2902 B( 20-S , 24-C ) :   1.2956 B( 21-C , 22-N ) :   1.6812
B( 21-C , 36-C ) :   0.9934 B( 22-N , 23-N ) :   1.1372 B( 23-N , 24-C ) :   1.6712
B( 24-C , 25-C ) :   1.0160 B( 25-C , 26-N ) :   1.7058 B( 25-C , 29-S ) :   1.2764
B( 26-N , 27-N ) :   1.0928 B( 27-N , 28-C ) :   1.6415 B( 28-C , 29-S ) :   1.2739
B( 30-C , 31-N ) :   1.7411 B( 30-C , 35-C ) :   1.1318 B( 30-C , 44-H ) :   0.9565
B( 31-N , 32-C ) :   1.1034 B( 32-C , 33-C ) :   1.1868 B( 32-C , 36-C ) :   1.3705
B( 33-C , 34-N ) :   1.1611 B( 33-C , 39-C ) :   1.5064 B( 34-N , 35-C ) :   1.7254
B( 35-C , 43-H ) :   0.9618 B( 36-C , 37-C ) :   1.0854 B( 37-C , 38-C ) :   1.0503
B( 37-C , 42-N ) :   1.6882 B( 38-C , 39-C ) :   1.1839 B( 38-C , 40-N ) :   1.6519
B( 39-C , 46-H ) :   0.9697 B( 40-N , 41-S ) :   1.1622 B( 40-N , 42-N ) :   0.1386
B( 41-S , 42-N ) :   1.1481

Dispersion correction           -0.022466510
FINAL SINGLE POINT ENERGY     -2608.507631663594

DIPOLE MOMENT
-------------
                                X             Y             Z
Electronic contribution:    -30.31971       7.14848     -13.19419
Nuclear contribution   :     29.90243      -8.47616      16.38547
                        -----------------------------------------
Total Dipole Moment    :     -0.41728      -1.32769       3.19128
                        -----------------------------------------
Magnitude (a.u.)       :      3.48154
Magnitude (Debye)      :      8.84938

                             ****ORCA TERMINATED NORMALLY****
TOTAL RUN TIME: 0 days 0 hours 15 minutes 18 seconds 43 msec
