                         Program Version 4.0.0 -  RELEASE  -
|  1> #
|  2> !wB97X-D3 def2-TZVP def2/J RIJCOSX Grid5 FinalGrid6 TightSCF
|  3> %pal
|  4>  nprocs 24
|  5> end
|  6> %tddft
|  7>   Mode sTDDFT
|  8>   nroots 2
|  9>   Ethresh 10.0
| 10>   maxcore 5000
| 11>   triplets true
| 12> end
| 13> * xyz 0 1
| 14> C -6.62750627 -1.74601518 -2.20196695
| 15> C -5.74706688 -1.01491540 -1.40870941
| 16> C -6.25107817 -0.29300867 -0.31074232
| 17> C -7.64713534 -0.35741486 -0.04088058
| 18> C -8.53792314 -1.08827590 -0.84229230
| 19> C -8.00649970 -1.77894322 -1.92833688
| 20> C -5.66500158 0.53551318 0.73081675
| 21> C -6.74088905 0.90356898 1.59179583
| 22> N -7.92146913 0.37705973 1.09907598
| 23> C -6.56201623 1.66626271 2.75487816
| 24> C -5.26233263 2.05272819 3.07549996
| 25> C -4.18562557 1.70377451 2.24999587
| 26> C -4.35370084 0.96693469 1.06425564
| 27> H -3.18359057 2.02905179 2.51584994
| 28> H -8.83228086 0.47694770 1.53014391
| 29> H -5.07958107 2.63563741 3.97387432
| 30> H -4.68630950 -1.00662047 -1.63968854
| 31> H -9.60083876 -1.11872742 -0.61814693
| 32> H -8.66534980 -2.35697935 -2.57090270
| 33> H -6.24365416 -2.30422245 -3.05160730
| 34> C 2.76319613 0.17116664 0.63206366
| 35> N 1.57130886 0.24488800 -0.01279793
| 36> C 0.47513124 0.41901183 0.76015928
| 37> N 0.52285298 0.52016620 2.11391110
| 38> C 1.74629199 0.43612346 2.67225783
| 39> N 2.88914719 0.26340497 1.98391990
| 40> C -0.85303888 0.50565025 0.09020045
| 41> N -1.94975872 0.67108047 0.86154684
| 42> C -3.15038138 0.73808023 0.23023192
| 43> N -3.26545067 0.66803590 -1.12204642
| 44> C -2.12252436 0.51156543 -1.81489531
| 45> N -0.89738473 0.41811447 -1.26430140
| 46> H -2.19541491 0.45710144 -2.91167072
| 47> H 1.81520944 0.51439316 3.76726030
| 48> S 11.91973375 -0.73900621 1.13295244
| 49> C 10.39820265 -0.65312727 0.21433610
| 50> C 10.45897223 -0.76465749 -1.13670020
| 51> S 12.05527183 -0.98856788 -1.89049614
| 52> C 13.03179959 -0.96718369 -0.32340621
| 53> S 8.93687219 -0.67803461 -2.04692908
| 54> C 7.90838247 -0.45833377 -0.59447592
| 55> S 8.80231939 -0.42996374 0.95904698
| 56> C 6.55914859 -0.32376884 -0.66243141
| 57> S 5.65828962 -0.35081074 -2.20958047
| 58> C 4.06933403 -0.13003934 -1.49333447
| 59> C 3.98887500 -0.01639168 -0.14080785
| 60> S 5.51777379 -0.10390203 0.77447536
| 61> H 13.58671166 -1.90719872 -0.22097362
| 62> H 13.76745533 -0.15495998 -0.35750369
| 63> H -7.40449937 1.93400704 3.38678511
| 64> H 3.19592232 -0.08939947 -2.13680891
| 65> *
| 66> $new_job
| 67> #
| 68> !wB97X-D3 def2-TZVP def2/J RIJCOSX Grid5 FinalGrid6 TightSCF
| 69> %pal
| 70>  nprocs 24
| 71> end
| 72> %elprop
| 73>    dipole     true
| 74>    quadrupole true
| 75> end
| 76> %tddft
| 77>   Mode sTDDFT
| 78>   nroots 2
| 79>   Ethresh 10.0
| 80>   maxcore 5000
| 81> end
| 82> * xyz 0 1
| 83> C -6.62750627 -1.74601518 -2.20196695
| 84> C -5.74706688 -1.01491540 -1.40870941
| 85> C -6.25107817 -0.29300867 -0.31074232
| 86> C -7.64713534 -0.35741486 -0.04088058
| 87> C -8.53792314 -1.08827590 -0.84229230
| 88> C -8.00649970 -1.77894322 -1.92833688
| 89> C -5.66500158 0.53551318 0.73081675
| 90> C -6.74088905 0.90356898 1.59179583
| 91> N -7.92146913 0.37705973 1.09907598
| 92> C -6.56201623 1.66626271 2.75487816
| 93> C -5.26233263 2.05272819 3.07549996
| 94> C -4.18562557 1.70377451 2.24999587
| 95> C -4.35370084 0.96693469 1.06425564
| 96> H -3.18359057 2.02905179 2.51584994
| 97> H -8.83228086 0.47694770 1.53014391
| 98> H -5.07958107 2.63563741 3.97387432
| 99> H -4.68630950 -1.00662047 -1.63968854
|100> H -9.60083876 -1.11872742 -0.61814693
|101> H -8.66534980 -2.35697935 -2.57090270
|102> H -6.24365416 -2.30422245 -3.05160730
|103> C 2.76319613 0.17116664 0.63206366
|104> N 1.57130886 0.24488800 -0.01279793
|105> C 0.47513124 0.41901183 0.76015928
|106> N 0.52285298 0.52016620 2.11391110
|107> C 1.74629199 0.43612346 2.67225783
|108> N 2.88914719 0.26340497 1.98391990
|109> C -0.85303888 0.50565025 0.09020045
|110> N -1.94975872 0.67108047 0.86154684
|111> C -3.15038138 0.73808023 0.23023192
|112> N -3.26545067 0.66803590 -1.12204642
|113> C -2.12252436 0.51156543 -1.81489531
|114> N -0.89738473 0.41811447 -1.26430140
|115> H -2.19541491 0.45710144 -2.91167072
|116> H 1.81520944 0.51439316 3.76726030
|117> S 11.91973375 -0.73900621 1.13295244
|118> C 10.39820265 -0.65312727 0.21433610
|119> C 10.45897223 -0.76465749 -1.13670020
|120> S 12.05527183 -0.98856788 -1.89049614
|121> C 13.03179959 -0.96718369 -0.32340621
|122> S 8.93687219 -0.67803461 -2.04692908
|123> C 7.90838247 -0.45833377 -0.59447592
|124> S 8.80231939 -0.42996374 0.95904698
|125> C 6.55914859 -0.32376884 -0.66243141
|126> S 5.65828962 -0.35081074 -2.20958047
|127> C 4.06933403 -0.13003934 -1.49333447
|128> C 3.98887500 -0.01639168 -0.14080785
|129> S 5.51777379 -0.10390203 0.77447536
|130> H 13.58671166 -1.90719872 -0.22097362
|131> H 13.76745533 -0.15495998 -0.35750369
|132> H -7.40449937 1.93400704 3.38678511
|133> H 3.19592232 -0.08939947 -2.13680891
|134> *
|135>
|136>                          ****END OF INPUT****
 Total Charge           Charge          ....    0
 Multiplicity           Mult            ....    1
 Number of Electrons    NEL             ....  308
Dispersion correction           -0.023065227
FINAL SINGLE POINT ENERGY     -3733.000055157540

CARTESIAN COORDINATES (ANGSTROEM)
---------------------------------
  C     -6.627506   -1.746015   -2.201967
  C     -5.747067   -1.014915   -1.408709
  C     -6.251078   -0.293009   -0.310742
  C     -7.647135   -0.357415   -0.040881
  C     -8.537923   -1.088276   -0.842292
  C     -8.006500   -1.778943   -1.928337
  C     -5.665002    0.535513    0.730817
  C     -6.740889    0.903569    1.591796
  N     -7.921469    0.377060    1.099076
  C     -6.562016    1.666263    2.754878
  C     -5.262333    2.052728    3.075500
  C     -4.185626    1.703775    2.249996
  C     -4.353701    0.966935    1.064256
  H     -3.183591    2.029052    2.515850
  H     -8.832281    0.476948    1.530144
  H     -5.079581    2.635637    3.973874
  H     -4.686310   -1.006620   -1.639689
  H     -9.600839   -1.118727   -0.618147
  H     -8.665350   -2.356979   -2.570903
  H     -6.243654   -2.304222   -3.051607
  C      2.763196    0.171167    0.632064
  N      1.571309    0.244888   -0.012798
  C      0.475131    0.419012    0.760159
  N      0.522853    0.520166    2.113911
  C      1.746292    0.436123    2.672258
  N      2.889147    0.263405    1.983920
  C     -0.853039    0.505650    0.090200
  N     -1.949759    0.671080    0.861547
  C     -3.150381    0.738080    0.230232
  N     -3.265451    0.668036   -1.122046
  C     -2.122524    0.511565   -1.814895
  N     -0.897385    0.418114   -1.264301
  H     -2.195415    0.457101   -2.911671
  H      1.815209    0.514393    3.767260
  S     11.919734   -0.739006    1.132952
  C     10.398203   -0.653127    0.214336
  C     10.458972   -0.764657   -1.136700
  S     12.055272   -0.988568   -1.890496
  C     13.031800   -0.967184   -0.323406
  S      8.936872   -0.678035   -2.046929
  C      7.908382   -0.458334   -0.594476
  S      8.802319   -0.429964    0.959047
  C      6.559149   -0.323769   -0.662431
  S      5.658290   -0.350811   -2.209580
  C      4.069334   -0.130039   -1.493334
  C      3.988875   -0.016392   -0.140808
  S      5.517774   -0.103902    0.774475
  H     13.586712   -1.907199   -0.220974
  H     13.767455   -0.154960   -0.357504
  H     -7.404499    1.934007    3.386785
  H      3.195922   -0.089399   -2.136809

 Multiplicity           Mult            ....    1
 Number of Electrons    NEL             ....  308
 Basis Dimension        Dim             .... 1292

ORBITAL ENERGIES
----------------

  NO   OCC          E(Eh)            E(eV)
   0   2.0000     -88.998664     -2421.7768
   1   2.0000     -88.994782     -2421.6711
   2   2.0000     -88.994232     -2421.6562
   3   2.0000     -88.987717     -2421.4789
   4   2.0000     -88.983955     -2421.3765
   5   2.0000     -88.983894     -2421.3749
   6   2.0000     -14.470044      -393.7499
   7   2.0000     -14.456635      -393.3850
   8   2.0000     -14.455025      -393.3412
   9   2.0000     -14.451352      -393.2413
  10   2.0000     -14.449603      -393.1937
  11   2.0000     -14.449005      -393.1774
  12   2.0000     -14.447963      -393.1491
  13   2.0000     -10.401789      -283.0471
  14   2.0000     -10.397685      -282.9354
  15   2.0000     -10.393901      -282.8324
  16   2.0000     -10.390862      -282.7497
  17   2.0000     -10.384471      -282.5758
  18   2.0000     -10.380474      -282.4670
  19   2.0000     -10.366018      -282.0737
  20   2.0000     -10.362899      -281.9888
  21   2.0000     -10.360014      -281.9103
  22   2.0000     -10.359109      -281.8857
  23   2.0000     -10.358367      -281.8655
  24   2.0000     -10.349582      -281.6265
  25   2.0000     -10.346373      -281.5391
  26   2.0000     -10.332047      -281.1493
  27   2.0000     -10.327124      -281.0153
  28   2.0000     -10.309295      -280.5302
  29   2.0000     -10.302586      -280.3476
  30   2.0000     -10.297494      -280.2091
  31   2.0000     -10.291087      -280.0347
  32   2.0000     -10.290121      -280.0084
  33   2.0000     -10.286892      -279.9206
  34   2.0000     -10.286586      -279.9122
  35   2.0000     -10.285715      -279.8885
  36   2.0000     -10.282375      -279.7976
  37   2.0000     -10.274546      -279.5846
  38   2.0000      -8.094854      -220.2722
  39   2.0000      -8.090688      -220.1588
  40   2.0000      -8.090075      -220.1421
  41   2.0000      -8.083680      -219.9681
  42   2.0000      -8.080372      -219.8781
  43   2.0000      -8.080305      -219.8763
  44   2.0000      -6.048909      -164.5992
  45   2.0000      -6.045016      -164.4933
  46   2.0000      -6.044475      -164.4785
  47   2.0000      -6.044407      -164.4767
  48   2.0000      -6.040853      -164.3800
  49   2.0000      -6.040505      -164.3705
  50   2.0000      -6.040228      -164.3630
  51   2.0000      -6.037951      -164.3010
  52   2.0000      -6.035522      -164.2349
  53   2.0000      -6.034971      -164.2199
  54   2.0000      -6.034919      -164.2185
  55   2.0000      -6.034905      -164.2181
  56   2.0000      -6.033589      -164.1823
  57   2.0000      -6.030711      -164.1040
  58   2.0000      -6.030638      -164.1020
  59   2.0000      -6.028774      -164.0513
  60   2.0000      -6.024610      -163.9380
  61   2.0000      -6.024544      -163.9362
  62   2.0000      -1.156943       -31.4820
  63   2.0000      -1.142767       -31.0963
  64   2.0000      -1.107152       -30.1271
  65   2.0000      -1.046273       -28.4705
  66   2.0000      -1.037402       -28.2291
  67   2.0000      -1.027739       -27.9662
  68   2.0000      -1.024583       -27.8803
  69   2.0000      -1.015591       -27.6356
  70   2.0000      -1.003721       -27.3126
  71   2.0000      -0.973700       -26.4957
  72   2.0000      -0.964696       -26.2507
  73   2.0000      -0.962256       -26.1843
  74   2.0000      -0.909454       -24.7475
  75   2.0000      -0.906244       -24.6602
  76   2.0000      -0.903976       -24.5984
  77   2.0000      -0.891080       -24.2475
  78   2.0000      -0.884778       -24.0760
  79   2.0000      -0.857806       -23.3421
  80   2.0000      -0.852754       -23.2046
  81   2.0000      -0.844961       -22.9926
  82   2.0000      -0.841196       -22.8901
  83   2.0000      -0.840786       -22.8790
  84   2.0000      -0.811484       -22.0816
  85   2.0000      -0.797871       -21.7112
  86   2.0000      -0.781395       -21.2628
  87   2.0000      -0.763837       -20.7851
  88   2.0000      -0.751961       -20.4619
  89   2.0000      -0.723373       -19.6840
  90   2.0000      -0.722099       -19.6493
  91   2.0000      -0.715952       -19.4821
  92   2.0000      -0.709128       -19.2963
  93   2.0000      -0.687848       -18.7173
  94   2.0000      -0.677592       -18.4382
  95   2.0000      -0.664635       -18.0856
  96   2.0000      -0.651384       -17.7251
  97   2.0000      -0.644924       -17.5493
  98   2.0000      -0.636039       -17.3075
  99   2.0000      -0.632205       -17.2032
 100   2.0000      -0.623399       -16.9635
 101   2.0000      -0.613872       -16.7043
 102   2.0000      -0.603787       -16.4299
 103   2.0000      -0.587976       -15.9996
 104   2.0000      -0.578427       -15.7398
 105   2.0000      -0.573450       -15.6044
 106   2.0000      -0.568970       -15.4825
 107   2.0000      -0.560130       -15.2419
 108   2.0000      -0.557570       -15.1723
 109   2.0000      -0.550332       -14.9753
 110   2.0000      -0.546931       -14.8828
 111   2.0000      -0.545597       -14.8464
 112   2.0000      -0.542856       -14.7719
 113   2.0000      -0.539208       -14.6726
 114   2.0000      -0.533473       -14.5165
 115   2.0000      -0.531335       -14.4584
 116   2.0000      -0.526876       -14.3370
 117   2.0000      -0.525123       -14.2893
 118   2.0000      -0.521366       -14.1871
 119   2.0000      -0.501441       -13.6449
 120   2.0000      -0.499635       -13.5958
 121   2.0000      -0.499472       -13.5913
 122   2.0000      -0.495321       -13.4784
 123   2.0000      -0.487273       -13.2594
 124   2.0000      -0.480519       -13.0756
 125   2.0000      -0.473559       -12.8862
 126   2.0000      -0.469197       -12.7675
 127   2.0000      -0.466620       -12.6974
 128   2.0000      -0.464633       -12.6433
 129   2.0000      -0.462232       -12.5780
 130   2.0000      -0.452629       -12.3167
 131   2.0000      -0.450316       -12.2537
 132   2.0000      -0.446019       -12.1368
 133   2.0000      -0.442889       -12.0516
 134   2.0000      -0.433442       -11.7945
 135   2.0000      -0.427734       -11.6392
 136   2.0000      -0.421611       -11.4726
 137   2.0000      -0.417854       -11.3704
 138   2.0000      -0.415196       -11.2981
 139   2.0000      -0.408685       -11.1209
 140   2.0000      -0.402437       -10.9509
 141   2.0000      -0.386726       -10.5234
 142   2.0000      -0.381834       -10.3902
 143   2.0000      -0.380801       -10.3621
 144   2.0000      -0.378858       -10.3093
 145   2.0000      -0.369620       -10.0579
 146   2.0000      -0.359971        -9.7953
 147   2.0000      -0.357114        -9.7176
 148   2.0000      -0.355887        -9.6842
 149   2.0000      -0.345519        -9.4020
 150   2.0000      -0.301701        -8.2097
 151   2.0000      -0.296864        -8.0781
 152   2.0000      -0.292152        -7.9499
 153   2.0000      -0.251316        -6.8387
 154   0.0000      -0.039896        -1.0856
 155   0.0000      -0.020485        -0.5574
 156   0.0000      -0.006203        -0.1688
 157   0.0000       0.023477         0.6388
 158   0.0000       0.034672         0.9435

MULLIKEN ATOMIC CHARGES
-----------------------
   0 C :   -0.175682
   1 C :   -0.114655
   2 C :   -0.019820
   3 C :    0.178145
   4 C :   -0.241193
   5 C :   -0.074610
   6 C :   -0.013763
   7 C :    0.184387
   8 N :   -0.304231
   9 C :   -0.224272
  10 C :   -0.073928
  11 C :   -0.253263
  12 C :    0.125442
  13 H :    0.150272
  14 H :    0.236862
  15 H :    0.125949
  16 H :    0.132672
  17 H :    0.114506
  18 H :    0.122229
  19 H :    0.114673
  20 C :    0.333028
  21 N :   -0.281191
  22 C :    0.223641
  23 N :   -0.264706
  24 C :    0.108624
  25 N :   -0.307152
  26 C :    0.228013
  27 N :   -0.282999
  28 C :    0.284160
  29 N :   -0.333435
  30 C :    0.120651
  31 N :   -0.269207
  32 H :    0.155468
  33 H :    0.158407
  34 S :   -0.022922
  35 C :   -0.032717
  36 C :   -0.029539
  37 S :   -0.022682
  38 C :   -0.224033
  39 S :    0.004885
  40 C :   -0.087012
  41 S :    0.010134
  42 C :    0.059929
  43 S :    0.050572
  44 C :   -0.127335
  45 C :   -0.099494
  46 S :    0.032083
  47 H :    0.152395
  48 H :    0.152510
  49 H :    0.118314
  50 H :    0.201892
Sum of atomic charges:   -0.0000000

LOEWDIN ATOMIC CHARGES
----------------------
   0 C :   -0.160561
   1 C :   -0.096623
   2 C :   -0.078049
   3 C :   -0.144394
   4 C :   -0.134693
   5 C :   -0.140336
   6 C :   -0.030992
   7 C :   -0.144545
   8 N :    0.200239
   9 C :   -0.116282
  10 C :   -0.140769
  11 C :   -0.096084
  12 C :   -0.077728
  13 H :    0.157219
  14 H :    0.193277
  15 H :    0.147223
  16 H :    0.149516
  17 H :    0.142869
  18 H :    0.144569
  19 H :    0.142830
  20 C :   -0.251637
  21 N :    0.173933
  22 C :   -0.215755
  23 N :    0.134362
  24 C :   -0.219607
  25 N :    0.116247
  26 C :   -0.220431
  27 N :    0.179390
  28 C :   -0.190493
  29 N :    0.130330
  30 C :   -0.227653
  31 N :    0.130610
  32 H :    0.142926
  33 H :    0.144425
  34 S :    0.531427
  35 C :   -0.661860
  36 C :   -0.662205
  37 S :    0.530589
  38 C :   -0.596920
  39 S :    0.620418
  40 C :   -0.623595
  41 S :    0.626641
  42 C :   -0.629463
  43 S :    0.647527
  44 C :   -0.341815
  45 C :   -0.372883
  46 S :    0.662965
  47 H :    0.113878
  48 H :    0.113927
  49 H :    0.145266
  50 H :    0.152774

  Mayer bond orders larger than 0.1
B(  0-C ,  1-C ) :   1.5284 B(  0-C ,  5-C ) :   1.3490 B(  0-C , 19-H ) :   0.9891
B(  1-C ,  2-C ) :   1.2699 B(  1-C , 16-H ) :   0.9467 B(  2-C ,  3-C ) :   1.3500
B(  2-C ,  6-C ) :   1.0813 B(  3-C ,  4-C ) :   1.3011 B(  3-C ,  8-N ) :   1.1193
B(  4-C ,  5-C ) :   1.4875 B(  4-C , 17-H ) :   0.9754 B(  5-C , 18-H ) :   0.9806
B(  6-C ,  7-C ) :   1.3142 B(  6-C , 12-C ) :   1.2439 B(  7-C ,  8-N ) :   1.1486
B(  7-C ,  9-C ) :   1.2855 B(  8-N , 14-H ) :   0.9132 B(  9-C , 10-C ) :   1.4503
B(  9-C , 49-H ) :   0.9768 B( 10-C , 11-C ) :   1.3882 B( 10-C , 15-H ) :   0.9853
B( 11-C , 12-C ) :   1.4442 B( 11-C , 13-H ) :   0.9545 B( 12-C , 28-C ) :   0.9746
B( 20-C , 21-N ) :   1.4340 B( 20-C , 25-N ) :   1.4002 B( 20-C , 45-C ) :   1.0060
B( 21-N , 22-C ) :   1.5104 B( 22-C , 23-N ) :   1.4582 B( 22-C , 26-C ) :   1.0373
B( 23-N , 24-C ) :   1.4730 B( 24-C , 25-N ) :   1.4756 B( 24-C , 33-H ) :   0.9621
B( 26-C , 27-N ) :   1.5160 B( 26-C , 31-N ) :   1.4457 B( 27-N , 28-C ) :   1.4368
B( 28-C , 29-N ) :   1.3852 B( 29-N , 30-C ) :   1.4566 B( 30-C , 31-N ) :   1.4736
B( 30-C , 32-H ) :   0.9621 B( 34-S , 35-C ) :   1.0922 B( 34-S , 38-C ) :   1.0263
B( 35-C , 36-C ) :   1.7665 B( 35-C , 41-S ) :   1.1102 B( 36-C , 37-S ) :   1.0923
B( 36-C , 39-S ) :   1.1065 B( 37-S , 38-C ) :   1.0254 B( 38-C , 47-H ) :   0.9504
B( 38-C , 48-H ) :   0.9502 B( 39-S , 40-C ) :   1.1594 B( 40-C , 41-S ) :   1.1540
B( 40-C , 42-C ) :   1.5555 B( 42-C , 43-S ) :   1.0854 B( 42-C , 46-S ) :   1.1335
B( 43-S , 44-C ) :   1.2070 B( 44-C , 45-C ) :   1.7791 B( 44-C , 50-H ) :   0.8921
B( 45-C , 46-S ) :   1.1926

Dispersion correction           -0.023065227
FINAL SINGLE POINT ENERGY     -3733.000055169998

DIPOLE MOMENT
-------------
                                X             Y             Z
Electronic contribution:     48.84584      -0.18398      -1.71780
Nuclear contribution   :    -49.64501       0.27264       1.96221
                        -----------------------------------------
Total Dipole Moment    :     -0.79916       0.08866       0.24441
                        -----------------------------------------
Magnitude (a.u.)       :      0.84039
Magnitude (Debye)      :      2.13611

                             ****ORCA TERMINATED NORMALLY****
TOTAL RUN TIME: 0 days 0 hours 21 minutes 34 seconds 864 msec
