                         Program Version 4.0.0 -  RELEASE  -
|  1> #
|  2> !wB97X-D3 def2-TZVP def2/J RIJCOSX Grid5 FinalGrid6 TightSCF
|  3> %pal
|  4>  nprocs 24
|  5> end
|  6> %tddft
|  7>   Mode sTDDFT
|  8>   nroots 2
|  9>   Ethresh 10.0
| 10>   maxcore 5000
| 11>   triplets true
| 12> end
| 13> * xyz 0 1
| 14> C -6.49213321 -0.83023792 -1.80095713
| 15> C -5.33404434 -0.54511303 -1.08079092
| 16> C -5.26573990 -0.90557424 0.27760716
| 17> C -6.37122191 -1.59371837 0.85334236
| 18> C -7.54226717 -1.87380267 0.13292535
| 19> C -7.58852905 -1.47373674 -1.20068940
| 20> C -4.24893432 -0.81679311 1.31285934
| 21> C -4.77820318 -1.49858037 2.44578080
| 22> N -6.06198616 -1.92934547 2.15974885
| 23> C -4.04679069 -1.69592514 3.62713109
| 24> C -2.74116720 -1.20798840 3.65799403
| 25> C -2.20154996 -0.51394639 2.56738922
| 26> C -2.93808229 -0.27474665 1.39064053
| 27> H -1.19163362 -0.11975757 2.63709881
| 28> H -6.65560023 -2.45745183 2.78745387
| 29> H -2.13470226 -1.35310278 4.54786378
| 30> H -4.49338314 -0.07300157 -1.57938501
| 31> H -8.37668943 -2.39420530 0.59552569
| 32> H -8.47842089 -1.67570023 -1.79086227
| 33> H -6.54975474 -0.55413510 -2.85028843
| 34> O 1.68640398 0.90752865 -0.24960239
| 35> C 0.79511612 1.65221690 -0.93821190
| 36> C 1.47551596 2.48245618 -1.81906701
| 37> C 2.85242892 2.19931082 -1.64466040
| 38> C 2.93584820 1.20599338 -0.67828667
| 39> C -0.61135931 1.47843513 -0.66428177
| 40> C -1.74279607 2.08620866 -1.19158288
| 41> C -2.85109239 1.49666777 -0.53251805
| 42> C -2.33334747 0.56268661 0.35361017
| 43> O -0.98337697 0.57781283 0.27117473
| 44> H -3.88944806 1.76496606 -0.65733972
| 45> H -1.76854614 2.85587990 -1.94934799
| 46> H 3.67570141 2.67514057 -2.15582897
| 47> H 1.03736711 3.20070744 -2.49711977
| 48> C 4.04840291 0.61322650 0.07578509
| 49> C 5.35123350 0.32667316 -0.47171557
| 50> C 6.40494077 -0.05381440 0.42490325
| 51> C 6.13097682 -0.21308466 1.81060907
| 52> C 4.85376488 -0.03140714 2.29670549
| 53> C 3.82407945 0.38814855 1.43537024
| 54> C 7.71728190 -0.29864270 -0.07263267
| 55> C 7.98676153 -0.22197999 -1.42164558
| 56> C 6.95047743 0.07021508 -2.33353147
| 57> C 5.66263378 0.32307017 -1.87110600
| 58> O 4.67494096 0.51967825 -2.78367133
| 59> H 7.14799804 0.07715153 -3.40268502
| 60> H 4.64111545 -0.17907395 3.35243936
| 61> H 2.83573602 0.58345842 1.84259586
| 62> H 8.98847733 -0.41290723 -1.79594143
| 63> H 8.50185498 -0.56359330 0.63076432
| 64> H 5.02739854 0.43912317 -3.67967804
| 65> H -4.47567241 -2.22201685 4.47522687
| 66> H 6.94011654 -0.50377262 2.47618245
| 67> *
| 68> $new_job
| 69> #
| 70> !wB97X-D3 def2-TZVP def2/J RIJCOSX Grid5 FinalGrid6 TightSCF
| 71> %pal
| 72>  nprocs 24
| 73> end
| 74> %elprop
| 75>    dipole     true
| 76>    quadrupole true
| 77> end
| 78> %tddft
| 79>   Mode sTDDFT
| 80>   nroots 2
| 81>   Ethresh 10.0
| 82>   maxcore 5000
| 83> end
| 84> * xyz 0 1
| 85> C -6.49213321 -0.83023792 -1.80095713
| 86> C -5.33404434 -0.54511303 -1.08079092
| 87> C -5.26573990 -0.90557424 0.27760716
| 88> C -6.37122191 -1.59371837 0.85334236
| 89> C -7.54226717 -1.87380267 0.13292535
| 90> C -7.58852905 -1.47373674 -1.20068940
| 91> C -4.24893432 -0.81679311 1.31285934
| 92> C -4.77820318 -1.49858037 2.44578080
| 93> N -6.06198616 -1.92934547 2.15974885
| 94> C -4.04679069 -1.69592514 3.62713109
| 95> C -2.74116720 -1.20798840 3.65799403
| 96> C -2.20154996 -0.51394639 2.56738922
| 97> C -2.93808229 -0.27474665 1.39064053
| 98> H -1.19163362 -0.11975757 2.63709881
| 99> H -6.65560023 -2.45745183 2.78745387
|100> H -2.13470226 -1.35310278 4.54786378
|101> H -4.49338314 -0.07300157 -1.57938501
|102> H -8.37668943 -2.39420530 0.59552569
|103> H -8.47842089 -1.67570023 -1.79086227
|104> H -6.54975474 -0.55413510 -2.85028843
|105> O 1.68640398 0.90752865 -0.24960239
|106> C 0.79511612 1.65221690 -0.93821190
|107> C 1.47551596 2.48245618 -1.81906701
|108> C 2.85242892 2.19931082 -1.64466040
|109> C 2.93584820 1.20599338 -0.67828667
|110> C -0.61135931 1.47843513 -0.66428177
|111> C -1.74279607 2.08620866 -1.19158288
|112> C -2.85109239 1.49666777 -0.53251805
|113> C -2.33334747 0.56268661 0.35361017
|114> O -0.98337697 0.57781283 0.27117473
|115> H -3.88944806 1.76496606 -0.65733972
|116> H -1.76854614 2.85587990 -1.94934799
|117> H 3.67570141 2.67514057 -2.15582897
|118> H 1.03736711 3.20070744 -2.49711977
|119> C 4.04840291 0.61322650 0.07578509
|120> C 5.35123350 0.32667316 -0.47171557
|121> C 6.40494077 -0.05381440 0.42490325
|122> C 6.13097682 -0.21308466 1.81060907
|123> C 4.85376488 -0.03140714 2.29670549
|124> C 3.82407945 0.38814855 1.43537024
|125> C 7.71728190 -0.29864270 -0.07263267
|126> C 7.98676153 -0.22197999 -1.42164558
|127> C 6.95047743 0.07021508 -2.33353147
|128> C 5.66263378 0.32307017 -1.87110600
|129> O 4.67494096 0.51967825 -2.78367133
|130> H 7.14799804 0.07715153 -3.40268502
|131> H 4.64111545 -0.17907395 3.35243936
|132> H 2.83573602 0.58345842 1.84259586
|133> H 8.98847733 -0.41290723 -1.79594143
|134> H 8.50185498 -0.56359330 0.63076432
|135> H 5.02739854 0.43912317 -3.67967804
|136> H -4.47567241 -2.22201685 4.47522687
|137> H 6.94011654 -0.50377262 2.47618245
|138> *
|139>
|140>                          ****END OF INPUT****
 Total Charge           Charge          ....    0
 Multiplicity           Mult            ....    1
 Number of Electrons    NEL             ....  230
Dispersion correction           -0.024034993
FINAL SINGLE POINT ENERGY     -1435.149250744087

CARTESIAN COORDINATES (ANGSTROEM)
---------------------------------
  C     -6.492133   -0.830238   -1.800957
  C     -5.334044   -0.545113   -1.080791
  C     -5.265740   -0.905574    0.277607
  C     -6.371222   -1.593718    0.853342
  C     -7.542267   -1.873803    0.132925
  C     -7.588529   -1.473737   -1.200689
  C     -4.248934   -0.816793    1.312859
  C     -4.778203   -1.498580    2.445781
  N     -6.061986   -1.929345    2.159749
  C     -4.046791   -1.695925    3.627131
  C     -2.741167   -1.207988    3.657994
  C     -2.201550   -0.513946    2.567389
  C     -2.938082   -0.274747    1.390641
  H     -1.191634   -0.119758    2.637099
  H     -6.655600   -2.457452    2.787454
  H     -2.134702   -1.353103    4.547864
  H     -4.493383   -0.073002   -1.579385
  H     -8.376689   -2.394205    0.595526
  H     -8.478421   -1.675700   -1.790862
  H     -6.549755   -0.554135   -2.850288
  O      1.686404    0.907529   -0.249602
  C      0.795116    1.652217   -0.938212
  C      1.475516    2.482456   -1.819067
  C      2.852429    2.199311   -1.644660
  C      2.935848    1.205993   -0.678287
  C     -0.611359    1.478435   -0.664282
  C     -1.742796    2.086209   -1.191583
  C     -2.851092    1.496668   -0.532518
  C     -2.333347    0.562687    0.353610
  O     -0.983377    0.577813    0.271175
  H     -3.889448    1.764966   -0.657340
  H     -1.768546    2.855880   -1.949348
  H      3.675701    2.675141   -2.155829
  H      1.037367    3.200707   -2.497120
  C      4.048403    0.613227    0.075785
  C      5.351234    0.326673   -0.471716
  C      6.404941   -0.053814    0.424903
  C      6.130977   -0.213085    1.810609
  C      4.853765   -0.031407    2.296705
  C      3.824079    0.388149    1.435370
  C      7.717282   -0.298643   -0.072633
  C      7.986762   -0.221980   -1.421646
  C      6.950477    0.070215   -2.333531
  C      5.662634    0.323070   -1.871106
  O      4.674941    0.519678   -2.783671
  H      7.147998    0.077152   -3.402685
  H      4.641115   -0.179074    3.352439
  H      2.835736    0.583458    1.842596
  H      8.988477   -0.412907   -1.795941
  H      8.501855   -0.563593    0.630764
  H      5.027399    0.439123   -3.679678
  H     -4.475672   -2.222017    4.475227
  H      6.940117   -0.503773    2.476182

 Multiplicity           Mult            ....    1
 Number of Electrons    NEL             ....  230
 Basis Dimension        Dim             .... 1168

ORBITAL ENERGIES
----------------

  NO   OCC          E(Eh)            E(eV)
   0   2.0000     -19.303507      -525.2751
   1   2.0000     -19.301033      -525.2078
   2   2.0000     -19.266878      -524.2784
   3   2.0000     -14.464663      -393.6035
   4   2.0000     -10.355442      -281.7859
   5   2.0000     -10.344262      -281.4817
   6   2.0000     -10.341323      -281.4017
   7   2.0000     -10.338063      -281.3130
   8   2.0000     -10.334482      -281.2156
   9   2.0000     -10.324546      -280.9452
  10   2.0000     -10.323061      -280.9048
  11   2.0000     -10.307941      -280.4933
  12   2.0000     -10.304337      -280.3953
  13   2.0000     -10.303898      -280.3833
  14   2.0000     -10.300040      -280.2784
  15   2.0000     -10.291312      -280.0408
  16   2.0000     -10.288625      -279.9677
  17   2.0000     -10.287460      -279.9360
  18   2.0000     -10.285741      -279.8892
  19   2.0000     -10.285011      -279.8694
  20   2.0000     -10.284471      -279.8547
  21   2.0000     -10.284235      -279.8483
  22   2.0000     -10.283936      -279.8401
  23   2.0000     -10.283703      -279.8338
  24   2.0000     -10.283326      -279.8235
  25   2.0000     -10.282538      -279.8021
  26   2.0000     -10.281594      -279.7764
  27   2.0000     -10.280695      -279.7519
  28   2.0000     -10.279149      -279.7099
  29   2.0000     -10.278930      -279.7039
  30   2.0000     -10.278548      -279.6935
  31   2.0000     -10.274977      -279.5963
  32   2.0000     -10.274600      -279.5861
  33   2.0000     -10.273319      -279.5512
  34   2.0000      -1.244639       -33.8684
  35   2.0000      -1.231588       -33.5132
  36   2.0000      -1.188042       -32.3283
  37   2.0000      -1.101369       -29.9698
  38   2.0000      -0.996252       -27.1094
  39   2.0000      -0.970898       -26.4195
  40   2.0000      -0.962996       -26.2045
  41   2.0000      -0.946388       -25.7525
  42   2.0000      -0.925057       -25.1721
  43   2.0000      -0.917202       -24.9583
  44   2.0000      -0.911873       -24.8133
  45   2.0000      -0.898934       -24.4612
  46   2.0000      -0.892121       -24.2759
  47   2.0000      -0.870783       -23.6952
  48   2.0000      -0.863685       -23.5021
  49   2.0000      -0.852591       -23.2002
  50   2.0000      -0.837382       -22.7863
  51   2.0000      -0.834486       -22.7075
  52   2.0000      -0.807944       -21.9853
  53   2.0000      -0.762325       -20.7439
  54   2.0000      -0.750419       -20.4200
  55   2.0000      -0.738298       -20.0901
  56   2.0000      -0.730771       -19.8853
  57   2.0000      -0.725247       -19.7350
  58   2.0000      -0.713943       -19.4274
  59   2.0000      -0.708420       -19.2771
  60   2.0000      -0.703776       -19.1507
  61   2.0000      -0.684774       -18.6336
  62   2.0000      -0.673828       -18.3358
  63   2.0000      -0.661082       -17.9890
  64   2.0000      -0.657198       -17.8833
  65   2.0000      -0.649091       -17.6627
  66   2.0000      -0.634490       -17.2653
  67   2.0000      -0.622606       -16.9420
  68   2.0000      -0.616536       -16.7768
  69   2.0000      -0.608375       -16.5547
  70   2.0000      -0.606774       -16.5111
  71   2.0000      -0.587462       -15.9857
  72   2.0000      -0.584471       -15.9043
  73   2.0000      -0.568554       -15.4711
  74   2.0000      -0.565927       -15.3996
  75   2.0000      -0.555909       -15.1270
  76   2.0000      -0.552933       -15.0461
  77   2.0000      -0.548854       -14.9351
  78   2.0000      -0.541719       -14.7409
  79   2.0000      -0.541214       -14.7272
  80   2.0000      -0.533136       -14.5074
  81   2.0000      -0.531608       -14.4658
  82   2.0000      -0.528002       -14.3677
  83   2.0000      -0.525900       -14.3105
  84   2.0000      -0.517551       -14.0833
  85   2.0000      -0.510901       -13.9023
  86   2.0000      -0.505147       -13.7457
  87   2.0000      -0.501902       -13.6574
  88   2.0000      -0.497802       -13.5459
  89   2.0000      -0.496294       -13.5049
  90   2.0000      -0.488844       -13.3021
  91   2.0000      -0.478112       -13.0101
  92   2.0000      -0.474697       -12.9172
  93   2.0000      -0.468997       -12.7621
  94   2.0000      -0.464271       -12.6335
  95   2.0000      -0.462497       -12.5852
  96   2.0000      -0.461303       -12.5527
  97   2.0000      -0.455999       -12.4084
  98   2.0000      -0.439972       -11.9723
  99   2.0000      -0.438286       -11.9264
 100   2.0000      -0.436319       -11.8729
 101   2.0000      -0.432557       -11.7705
 102   2.0000      -0.429213       -11.6795
 103   2.0000      -0.424289       -11.5455
 104   2.0000      -0.387497       -10.5443
 105   2.0000      -0.380787       -10.3617
 106   2.0000      -0.377707       -10.2779
 107   2.0000      -0.369968       -10.0673
 108   2.0000      -0.355642        -9.6775
 109   2.0000      -0.334452        -9.1009
 110   2.0000      -0.330459        -8.9922
 111   2.0000      -0.301760        -8.2113
 112   2.0000      -0.292374        -7.9559
 113   2.0000      -0.283092        -7.7033
 114   2.0000      -0.248156        -6.7527
 115   0.0000       0.002652         0.0722
 116   0.0000       0.020895         0.5686
 117   0.0000       0.047055         1.2804
 118   0.0000       0.050893         1.3849
 119   0.0000       0.069277         1.8851

MULLIKEN ATOMIC CHARGES
-----------------------
   0 C :   -0.147939
   1 C :   -0.246809
   2 C :   -0.033232
   3 C :    0.176936
   4 C :   -0.228781
   5 C :   -0.096758
   6 C :   -0.007401
   7 C :    0.179721
   8 N :   -0.300312
   9 C :   -0.244359
  10 C :   -0.069451
  11 C :   -0.288352
  12 C :    0.133174
  13 H :    0.139971
  14 H :    0.235343
  15 H :    0.119931
  16 H :    0.193926
  17 H :    0.114043
  18 H :    0.120851
  19 H :    0.116388
  20 O :   -0.270834
  21 C :    0.217764
  22 C :   -0.243281
  23 C :   -0.167950
  24 C :    0.298968
  25 C :    0.226622
  26 C :   -0.206391
  27 C :   -0.324946
  28 C :    0.271353
  29 O :   -0.267530
  30 H :    0.194433
  31 H :    0.134185
  32 H :    0.139872
  33 H :    0.131137
  34 C :    0.096910
  35 C :   -0.072387
  36 C :    0.196322
  37 C :   -0.207023
  38 C :   -0.088082
  39 C :   -0.259036
  40 C :   -0.234685
  41 C :   -0.107610
  42 C :   -0.225780
  43 C :    0.156575
  44 O :   -0.419040
  45 H :    0.103745
  46 H :    0.121771
  47 H :    0.147136
  48 H :    0.124018
  49 H :    0.113285
  50 H :    0.324427
  51 H :    0.112779
  52 H :    0.116380
Sum of atomic charges:   -0.0000000

LOEWDIN ATOMIC CHARGES
----------------------
   0 C :   -0.161295
   1 C :   -0.107740
   2 C :   -0.079688
   3 C :   -0.145587
   4 C :   -0.133636
   5 C :   -0.144005
   6 C :   -0.040046
   7 C :   -0.145211
   8 N :    0.199653
   9 C :   -0.132654
  10 C :   -0.142348
  11 C :   -0.112294
  12 C :   -0.080077
  13 H :    0.151126
  14 H :    0.192614
  15 H :    0.145732
  16 H :    0.151986
  17 H :    0.142814
  18 H :    0.144111
  19 H :    0.142946
  20 O :    0.401010
  21 C :   -0.217904
  22 C :   -0.140287
  23 C :   -0.137518
  24 C :   -0.193395
  25 C :   -0.213435
  26 C :   -0.141389
  27 C :   -0.146134
  28 C :   -0.193216
  29 O :    0.404083
  30 H :    0.148553
  31 H :    0.142581
  32 H :    0.143622
  33 H :    0.141789
  34 C :   -0.068889
  35 C :   -0.032754
  36 C :   -0.085929
  37 C :   -0.101488
  38 C :   -0.138732
  39 C :   -0.093998
  40 C :   -0.122465
  41 C :   -0.144451
  42 C :   -0.155867
  43 C :   -0.222042
  44 O :    0.105321
  45 H :    0.140733
  46 H :    0.146701
  47 H :    0.154422
  48 H :    0.145763
  49 H :    0.146855
  50 H :    0.190860
  51 H :    0.142780
  52 H :    0.148416

  Mayer bond orders larger than 0.1
B(  0-C ,  1-C ) :   1.5350 B(  0-C ,  5-C ) :   1.3635 B(  0-C , 19-H ) :   0.9847
B(  1-C ,  2-C ) :   1.2739 B(  1-C , 16-H ) :   0.9280 B(  2-C ,  3-C ) :   1.3697
B(  2-C ,  6-C ) :   1.0467 B(  3-C ,  4-C ) :   1.3041 B(  3-C ,  8-N ) :   1.1233
B(  4-C ,  5-C ) :   1.4819 B(  4-C , 17-H ) :   0.9788 B(  5-C , 18-H ) :   0.9827
B(  6-C ,  7-C ) :   1.3292 B(  6-C , 12-C ) :   1.2419 B(  7-C ,  8-N ) :   1.1453
B(  7-C ,  9-C ) :   1.2765 B(  8-N , 14-H ) :   0.9131 B(  9-C , 10-C ) :   1.4549
B(  9-C , 51-H ) :   0.9834 B( 10-C , 11-C ) :   1.3883 B( 10-C , 15-H ) :   0.9870
B( 11-C , 12-C ) :   1.4651 B( 11-C , 13-H ) :   0.9615 B( 12-C , 28-C ) :   0.9227
B( 20-O , 21-C ) :   1.0937 B( 20-O , 24-C ) :   1.0809 B( 21-C , 22-C ) :   1.5146
B( 21-C , 25-C ) :   1.0288 B( 22-C , 23-C ) :   1.3173 B( 22-C , 33-H ) :   0.9797
B( 23-C , 24-C ) :   1.5546 B( 23-C , 32-H ) :   0.9660 B( 24-C , 34-C ) :   0.8864
B( 25-C , 26-C ) :   1.5211 B( 25-C , 29-O ) :   1.0970 B( 26-C , 27-C ) :   1.3089
B( 26-C , 31-H ) :   0.9813 B( 27-C , 28-C ) :   1.5483 B( 27-C , 30-H ) :   0.9543
B( 28-C , 29-O ) :   1.0955 B( 34-C , 35-C ) :   1.1470 B( 34-C , 39-C ) :   1.5254
B( 35-C , 36-C ) :   1.3277 B( 35-C , 43-C ) :   1.2508 B( 36-C , 37-C ) :   1.2110
B( 36-C , 40-C ) :   1.2270 B( 37-C , 38-C ) :   1.5097 B( 37-C , 52-H ) :   0.9869
B( 38-C , 39-C ) :   1.2882 B( 38-C , 46-H ) :   0.9914 B( 39-C , 47-H ) :   0.9588
B( 40-C , 41-C ) :   1.5628 B( 40-C , 49-H ) :   0.9836 B( 41-C , 42-C ) :   1.2885
B( 41-C , 48-H ) :   0.9750 B( 42-C , 43-C ) :   1.4953 B( 42-C , 45-H ) :   0.9682
B( 43-C , 44-O ) :   1.1773 B( 44-O , 50-H ) :   0.8731

Dispersion correction           -0.024034993
FINAL SINGLE POINT ENERGY     -1435.149250715167

DIPOLE MOMENT
-------------
                                X             Y             Z
Electronic contribution:     -0.75774       1.22534       0.78558
Nuclear contribution   :      0.74955      -1.41092      -0.98202
                        -----------------------------------------
Total Dipole Moment    :     -0.00820      -0.18558      -0.19644
                        -----------------------------------------
Magnitude (a.u.)       :      0.27036
Magnitude (Debye)      :      0.68720

                             ****ORCA TERMINATED NORMALLY****
TOTAL RUN TIME: 0 days 0 hours 10 minutes 31 seconds 760 msec
