                         Program Version 4.0.0 -  RELEASE  -
|  1> #
|  2> !wB97X-D3 def2-TZVP def2/J RIJCOSX Grid5 FinalGrid6 TightSCF
|  3> %pal
|  4>  nprocs 24
|  5> end
|  6> %tddft
|  7>   Mode sTDDFT
|  8>   nroots 2
|  9>   Ethresh 10.0
| 10>   maxcore 5000
| 11>   triplets true
| 12> end
| 13> * xyz 0 1
| 14> C -6.37837549 0.22061513 -3.89637305
| 15> C -5.55456743 0.63232328 -2.85192500
| 16> C -6.00035310 1.65104655 -1.98837394
| 17> C -7.28772549 2.21431152 -2.21438442
| 18> C -8.11695374 1.80618185 -3.27033605
| 19> C -7.64137232 0.80095807 -4.10848488
| 20> C -5.46031916 2.31116046 -0.80973584
| 21> C -6.46511855 3.22712667 -0.37747604
| 22> N -7.54213399 3.16531249 -1.24175535
| 23> C -6.33478966 4.02426527 0.76920375
| 24> C -5.16592337 3.88630617 1.51486296
| 25> C -4.16197633 2.99441538 1.11797856
| 26> C -4.26586778 2.20628213 -0.04456398
| 27> H -3.25681927 2.92569239 1.71710157
| 28> H -8.39458186 3.70477224 -1.15428164
| 29> H -5.02621934 4.47875392 2.41448635
| 30> H -4.58056585 0.17248419 -2.71274029
| 31> H -9.09470605 2.25517370 -3.42331216
| 32> H -8.25545754 0.45825579 -4.93711871
| 33> H -6.03835729 -0.56448525 -4.56621785
| 34> S 0.90199772 -1.60338454 -1.71576774
| 35> C 0.05221684 -0.83541977 -0.36164669
| 36> N 0.61981768 -1.06562172 0.81466813
| 37> N 1.74153717 -1.84304884 0.73733451
| 38> C 2.04273402 -2.22119404 -0.50102242
| 39> C -1.14012378 -0.03967876 -0.54017482
| 40> N -1.70221249 0.19254690 -1.71916458
| 41> N -2.82316703 0.97241573 -1.63954356
| 42> C -3.13808399 1.34194084 -0.40757565
| 43> S -1.99056768 0.72562636 0.80891050
| 44> C 5.09756797 -4.37673697 -0.84404260
| 45> C 4.86130605 -4.35527943 -2.19490847
| 46> S 3.44506321 -3.41600630 -2.57676792
| 47> C 3.17106581 -3.04408875 -0.87599291
| 48> C 4.14302512 -3.63814970 -0.07659072
| 49> C 4.23366369 -3.51836532 1.42195524
| 50> C 5.24099297 -2.44296877 1.86939538
| 51> C 4.84553824 -1.03540537 1.41607550
| 52> C 5.84373534 0.04358457 1.84682486
| 53> C 5.86713050 0.28386275 3.35985156
| 54> C 6.82632470 1.39844211 3.75325227
| 55> H 5.93073021 -4.90646292 -0.39458342
| 56> H 7.84355003 1.16239577 3.44757173
| 57> H 6.54733113 2.33745327 3.27975481
| 58> H 6.82531799 1.55100950 4.83024369
| 59> H 3.24948909 -3.28748154 1.83855668
| 60> H 4.54617877 -4.48338988 1.83746826
| 61> H 6.23383355 -2.68913628 1.47733752
| 62> H 5.32022398 -2.47457654 2.96064998
| 63> H 4.76070150 -1.02598724 0.32434191
| 64> H 3.85033273 -0.79613791 1.80286210
| 65> H 6.15106006 -0.63844615 3.87620926
| 66> H 4.85729445 0.53024795 3.70291499
| 67> H 6.84869417 -0.22712411 1.50566473
| 68> H 5.59062823 0.98201944 1.34258278
| 69> H -7.11966766 4.71318531 1.06836533
| 70> H 5.44682335 -4.84169156 -2.96446424
| 71> *
| 72> $new_job
| 73> #
| 74> !wB97X-D3 def2-TZVP def2/J RIJCOSX Grid5 FinalGrid6 TightSCF
| 75> %pal
| 76>  nprocs 24
| 77> end
| 78> %elprop
| 79>    dipole     true
| 80>    quadrupole true
| 81> end
| 82> %tddft
| 83>   Mode sTDDFT
| 84>   nroots 2
| 85>   Ethresh 10.0
| 86>   maxcore 5000
| 87> end
| 88> * xyz 0 1
| 89> C -6.37837549 0.22061513 -3.89637305
| 90> C -5.55456743 0.63232328 -2.85192500
| 91> C -6.00035310 1.65104655 -1.98837394
| 92> C -7.28772549 2.21431152 -2.21438442
| 93> C -8.11695374 1.80618185 -3.27033605
| 94> C -7.64137232 0.80095807 -4.10848488
| 95> C -5.46031916 2.31116046 -0.80973584
| 96> C -6.46511855 3.22712667 -0.37747604
| 97> N -7.54213399 3.16531249 -1.24175535
| 98> C -6.33478966 4.02426527 0.76920375
| 99> C -5.16592337 3.88630617 1.51486296
|100> C -4.16197633 2.99441538 1.11797856
|101> C -4.26586778 2.20628213 -0.04456398
|102> H -3.25681927 2.92569239 1.71710157
|103> H -8.39458186 3.70477224 -1.15428164
|104> H -5.02621934 4.47875392 2.41448635
|105> H -4.58056585 0.17248419 -2.71274029
|106> H -9.09470605 2.25517370 -3.42331216
|107> H -8.25545754 0.45825579 -4.93711871
|108> H -6.03835729 -0.56448525 -4.56621785
|109> S 0.90199772 -1.60338454 -1.71576774
|110> C 0.05221684 -0.83541977 -0.36164669
|111> N 0.61981768 -1.06562172 0.81466813
|112> N 1.74153717 -1.84304884 0.73733451
|113> C 2.04273402 -2.22119404 -0.50102242
|114> C -1.14012378 -0.03967876 -0.54017482
|115> N -1.70221249 0.19254690 -1.71916458
|116> N -2.82316703 0.97241573 -1.63954356
|117> C -3.13808399 1.34194084 -0.40757565
|118> S -1.99056768 0.72562636 0.80891050
|119> C 5.09756797 -4.37673697 -0.84404260
|120> C 4.86130605 -4.35527943 -2.19490847
|121> S 3.44506321 -3.41600630 -2.57676792
|122> C 3.17106581 -3.04408875 -0.87599291
|123> C 4.14302512 -3.63814970 -0.07659072
|124> C 4.23366369 -3.51836532 1.42195524
|125> C 5.24099297 -2.44296877 1.86939538
|126> C 4.84553824 -1.03540537 1.41607550
|127> C 5.84373534 0.04358457 1.84682486
|128> C 5.86713050 0.28386275 3.35985156
|129> C 6.82632470 1.39844211 3.75325227
|130> H 5.93073021 -4.90646292 -0.39458342
|131> H 7.84355003 1.16239577 3.44757173
|132> H 6.54733113 2.33745327 3.27975481
|133> H 6.82531799 1.55100950 4.83024369
|134> H 3.24948909 -3.28748154 1.83855668
|135> H 4.54617877 -4.48338988 1.83746826
|136> H 6.23383355 -2.68913628 1.47733752
|137> H 5.32022398 -2.47457654 2.96064998
|138> H 4.76070150 -1.02598724 0.32434191
|139> H 3.85033273 -0.79613791 1.80286210
|140> H 6.15106006 -0.63844615 3.87620926
|141> H 4.85729445 0.53024795 3.70291499
|142> H 6.84869417 -0.22712411 1.50566473
|143> H 5.59062823 0.98201944 1.34258278
|144> H -7.11966766 4.71318531 1.06836533
|145> H 5.44682335 -4.84169156 -2.96446424
|146> *
|147>
|148>                          ****END OF INPUT****
 Total Charge           Charge          ....    0
 Multiplicity           Mult            ....    1
 Number of Electrons    NEL             ....  262
Dispersion correction           -0.027019263
FINAL SINGLE POINT ENERGY     -2473.051209735617

CARTESIAN COORDINATES (ANGSTROEM)
---------------------------------
  C     -6.378375    0.220615   -3.896373
  C     -5.554567    0.632323   -2.851925
  C     -6.000353    1.651047   -1.988374
  C     -7.287725    2.214312   -2.214384
  C     -8.116954    1.806182   -3.270336
  C     -7.641372    0.800958   -4.108485
  C     -5.460319    2.311160   -0.809736
  C     -6.465119    3.227127   -0.377476
  N     -7.542134    3.165312   -1.241755
  C     -6.334790    4.024265    0.769204
  C     -5.165923    3.886306    1.514863
  C     -4.161976    2.994415    1.117979
  C     -4.265868    2.206282   -0.044564
  H     -3.256819    2.925692    1.717102
  H     -8.394582    3.704772   -1.154282
  H     -5.026219    4.478754    2.414486
  H     -4.580566    0.172484   -2.712740
  H     -9.094706    2.255174   -3.423312
  H     -8.255458    0.458256   -4.937119
  H     -6.038357   -0.564485   -4.566218
  S      0.901998   -1.603385   -1.715768
  C      0.052217   -0.835420   -0.361647
  N      0.619818   -1.065622    0.814668
  N      1.741537   -1.843049    0.737335
  C      2.042734   -2.221194   -0.501022
  C     -1.140124   -0.039679   -0.540175
  N     -1.702212    0.192547   -1.719165
  N     -2.823167    0.972416   -1.639544
  C     -3.138084    1.341941   -0.407576
  S     -1.990568    0.725626    0.808910
  C      5.097568   -4.376737   -0.844043
  C      4.861306   -4.355279   -2.194908
  S      3.445063   -3.416006   -2.576768
  C      3.171066   -3.044089   -0.875993
  C      4.143025   -3.638150   -0.076591
  C      4.233664   -3.518365    1.421955
  C      5.240993   -2.442969    1.869395
  C      4.845538   -1.035405    1.416076
  C      5.843735    0.043585    1.846825
  C      5.867131    0.283863    3.359852
  C      6.826325    1.398442    3.753252
  H      5.930730   -4.906463   -0.394583
  H      7.843550    1.162396    3.447572
  H      6.547331    2.337453    3.279755
  H      6.825318    1.551009    4.830244
  H      3.249489   -3.287482    1.838557
  H      4.546179   -4.483390    1.837468
  H      6.233834   -2.689136    1.477338
  H      5.320224   -2.474577    2.960650
  H      4.760701   -1.025987    0.324342
  H      3.850333   -0.796138    1.802862
  H      6.151060   -0.638446    3.876209
  H      4.857294    0.530248    3.702915
  H      6.848694   -0.227124    1.505665
  H      5.590628    0.982019    1.342583
  H     -7.119668    4.713185    1.068365
  H      5.446823   -4.841692   -2.964464

 Multiplicity           Mult            ....    1
 Number of Electrons    NEL             ....  262
 Basis Dimension        Dim             .... 1210

ORBITAL ENERGIES
----------------

  NO   OCC          E(Eh)            E(eV)
   0   2.0000     -89.008634     -2422.0481
   1   2.0000     -89.007341     -2422.0129
   2   2.0000     -88.993955     -2421.6486
   3   2.0000     -14.474665      -393.8757
   4   2.0000     -14.472652      -393.8209
   5   2.0000     -14.471104      -393.7788
   6   2.0000     -14.465030      -393.6135
   7   2.0000     -14.464057      -393.5870
   8   2.0000     -10.381113      -282.4845
   9   2.0000     -10.379294      -282.4350
  10   2.0000     -10.378914      -282.4246
  11   2.0000     -10.374636      -282.3082
  12   2.0000     -10.335758      -281.2503
  13   2.0000     -10.335202      -281.2352
  14   2.0000     -10.329856      -281.0897
  15   2.0000     -10.326386      -280.9952
  16   2.0000     -10.321146      -280.8527
  17   2.0000     -10.313427      -280.6426
  18   2.0000     -10.305543      -280.4281
  19   2.0000     -10.299858      -280.2734
  20   2.0000     -10.298450      -280.2351
  21   2.0000     -10.296527      -280.1827
  22   2.0000     -10.295350      -280.1507
  23   2.0000     -10.289293      -279.9859
  24   2.0000     -10.284688      -279.8606
  25   2.0000     -10.283766      -279.8355
  26   2.0000     -10.278709      -279.6979
  27   2.0000     -10.277683      -279.6700
  28   2.0000     -10.271327      -279.4970
  29   2.0000     -10.271077      -279.4902
  30   2.0000     -10.262169      -279.2478
  31   2.0000     -10.260745      -279.2091
  32   2.0000     -10.257647      -279.1248
  33   2.0000     -10.254637      -279.0429
  34   2.0000      -8.104951      -220.5469
  35   2.0000      -8.103579      -220.5096
  36   2.0000      -8.090420      -220.1515
  37   2.0000      -6.058092      -164.8491
  38   2.0000      -6.056650      -164.8098
  39   2.0000      -6.054179      -164.7426
  40   2.0000      -6.052750      -164.7037
  41   2.0000      -6.051885      -164.6802
  42   2.0000      -6.050667      -164.6470
  43   2.0000      -6.043747      -164.4587
  44   2.0000      -6.039520      -164.3437
  45   2.0000      -6.037483      -164.2883
  46   2.0000      -1.156745       -31.4766
  47   2.0000      -1.148712       -31.2580
  48   2.0000      -1.108331       -30.1592
  49   2.0000      -1.019166       -27.7329
  50   2.0000      -0.993921       -27.0460
  51   2.0000      -0.977989       -26.6124
  52   2.0000      -0.964317       -26.2404
  53   2.0000      -0.949268       -25.8309
  54   2.0000      -0.935322       -25.4514
  55   2.0000      -0.928893       -25.2765
  56   2.0000      -0.915398       -24.9092
  57   2.0000      -0.902422       -24.5561
  58   2.0000      -0.898888       -24.4600
  59   2.0000      -0.875670       -23.8282
  60   2.0000      -0.859550       -23.3896
  61   2.0000      -0.856050       -23.2943
  62   2.0000      -0.847209       -23.0537
  63   2.0000      -0.841628       -22.9019
  64   2.0000      -0.814262       -22.1572
  65   2.0000      -0.785666       -21.3791
  66   2.0000      -0.769771       -20.9465
  67   2.0000      -0.754104       -20.5202
  68   2.0000      -0.740435       -20.1483
  69   2.0000      -0.724650       -19.7187
  70   2.0000      -0.723244       -19.6805
  71   2.0000      -0.713216       -19.4076
  72   2.0000      -0.707248       -19.2452
  73   2.0000      -0.690713       -18.7953
  74   2.0000      -0.683796       -18.6070
  75   2.0000      -0.666954       -18.1487
  76   2.0000      -0.664704       -18.0875
  77   2.0000      -0.650362       -17.6972
  78   2.0000      -0.627029       -17.0623
  79   2.0000      -0.621209       -16.9040
  80   2.0000      -0.615805       -16.7569
  81   2.0000      -0.609108       -16.5747
  82   2.0000      -0.582564       -15.8524
  83   2.0000      -0.576418       -15.6851
  84   2.0000      -0.570504       -15.5242
  85   2.0000      -0.562866       -15.3164
  86   2.0000      -0.561995       -15.2927
  87   2.0000      -0.557930       -15.1820
  88   2.0000      -0.553637       -15.0652
  89   2.0000      -0.551047       -14.9947
  90   2.0000      -0.543217       -14.7817
  91   2.0000      -0.542723       -14.7682
  92   2.0000      -0.538053       -14.6412
  93   2.0000      -0.533026       -14.5044
  94   2.0000      -0.530139       -14.4258
  95   2.0000      -0.525668       -14.3042
  96   2.0000      -0.519771       -14.1437
  97   2.0000      -0.515885       -14.0379
  98   2.0000      -0.512422       -13.9437
  99   2.0000      -0.505657       -13.7596
 100   2.0000      -0.498756       -13.5718
 101   2.0000      -0.487814       -13.2741
 102   2.0000      -0.485516       -13.2116
 103   2.0000      -0.477746       -13.0001
 104   2.0000      -0.472280       -12.8514
 105   2.0000      -0.468705       -12.7541
 106   2.0000      -0.462908       -12.5964
 107   2.0000      -0.453409       -12.3379
 108   2.0000      -0.447465       -12.1761
 109   2.0000      -0.446607       -12.1528
 110   2.0000      -0.446363       -12.1462
 111   2.0000      -0.436350       -11.8737
 112   2.0000      -0.434812       -11.8318
 113   2.0000      -0.429513       -11.6877
 114   2.0000      -0.425325       -11.5737
 115   2.0000      -0.416825       -11.3424
 116   2.0000      -0.410939       -11.1822
 117   2.0000      -0.403962       -10.9924
 118   2.0000      -0.401354       -10.9214
 119   2.0000      -0.398797       -10.8518
 120   2.0000      -0.395645       -10.7660
 121   2.0000      -0.393673       -10.7124
 122   2.0000      -0.384756       -10.4698
 123   2.0000      -0.374652       -10.1948
 124   2.0000      -0.368497       -10.0273
 125   2.0000      -0.365357        -9.9419
 126   2.0000      -0.345952        -9.4138
 127   2.0000      -0.340302        -9.2601
 128   2.0000      -0.310932        -8.4609
 129   2.0000      -0.300109        -8.1664
 130   2.0000      -0.290285        -7.8991
 131   0.0000      -0.035567        -0.9678
 132   0.0000       0.000100         0.0027
 133   0.0000       0.028366         0.7719
 134   0.0000       0.045519         1.2386
 135   0.0000       0.050518         1.3747

MULLIKEN ATOMIC CHARGES
-----------------------
   0 C :   -0.175977
   1 C :   -0.128028
   2 C :   -0.031766
   3 C :    0.172875
   4 C :   -0.242187
   5 C :   -0.076082
   6 C :   -0.024830
   7 C :    0.191567
   8 N :   -0.305115
   9 C :   -0.226713
  10 C :   -0.099005
  11 C :   -0.279314
  12 C :    0.113327
  13 H :    0.131146
  14 H :    0.237424
  15 H :    0.128075
  16 H :    0.155924
  17 H :    0.114168
  18 H :    0.122221
  19 H :    0.119279
  20 S :    0.065388
  21 C :    0.105768
  22 N :   -0.205371
  23 N :   -0.167166
  24 C :    0.347923
  25 C :    0.127595
  26 N :   -0.173023
  27 N :   -0.188423
  28 C :    0.163533
  29 S :    0.063453
  30 C :   -0.182220
  31 C :   -0.182205
  32 S :    0.048464
  33 C :   -0.201493
  34 C :   -0.062292
  35 C :   -0.147961
  36 C :   -0.240153
  37 C :   -0.210458
  38 C :   -0.183048
  39 C :   -0.190479
  40 C :   -0.340513
  41 H :    0.142016
  42 H :    0.105250
  43 H :    0.108408
  44 H :    0.115814
  45 H :    0.153623
  46 H :    0.118152
  47 H :    0.098119
  48 H :    0.104559
  49 H :    0.110151
  50 H :    0.130503
  51 H :    0.090141
  52 H :    0.098182
  53 H :    0.091210
  54 H :    0.101675
  55 H :    0.120678
  56 H :    0.167209
Sum of atomic charges:   -0.0000000

LOEWDIN ATOMIC CHARGES
----------------------
   0 C :   -0.157811
   1 C :   -0.091462
   2 C :   -0.078007
   3 C :   -0.144401
   4 C :   -0.136357
   5 C :   -0.138940
   6 C :   -0.028051
   7 C :   -0.143103
   8 N :    0.201597
   9 C :   -0.117664
  10 C :   -0.141429
  11 C :   -0.123134
  12 C :   -0.116213
  13 H :    0.145426
  14 H :    0.193602
  15 H :    0.147981
  16 H :    0.154028
  17 H :    0.142583
  18 H :    0.144566
  19 H :    0.144088
  20 S :    0.729000
  21 C :   -0.458422
  22 N :    0.046586
  23 N :    0.034817
  24 C :   -0.430652
  25 C :   -0.460727
  26 N :    0.043792
  27 N :    0.048034
  28 C :   -0.373836
  29 S :    0.737359
  30 C :   -0.169716
  31 C :   -0.364157
  32 S :    0.704448
  33 C :   -0.350712
  34 C :   -0.139241
  35 C :   -0.212764
  36 C :   -0.252053
  37 C :   -0.266520
  38 C :   -0.268510
  39 C :   -0.294952
  40 C :   -0.313542
  41 H :    0.148896
  42 H :    0.116135
  43 H :    0.116624
  44 H :    0.116199
  45 H :    0.152992
  46 H :    0.144217
  47 H :    0.133874
  48 H :    0.135476
  49 H :    0.139379
  50 H :    0.142128
  51 H :    0.129317
  52 H :    0.133460
  53 H :    0.132561
  54 H :    0.134740
  55 H :    0.145799
  56 H :    0.132670

  Mayer bond orders larger than 0.1
B(  0-C ,  1-C ) :   1.5366 B(  0-C ,  5-C ) :   1.3510 B(  0-C , 19-H ) :   0.9861
B(  1-C ,  2-C ) :   1.2715 B(  1-C , 16-H ) :   0.9347 B(  2-C ,  3-C ) :   1.3535
B(  2-C ,  6-C ) :   1.0937 B(  3-C ,  4-C ) :   1.3021 B(  3-C ,  8-N ) :   1.1144
B(  4-C ,  5-C ) :   1.4854 B(  4-C , 17-H ) :   0.9772 B(  5-C , 18-H ) :   0.9806
B(  6-C ,  7-C ) :   1.3184 B(  6-C , 12-C ) :   1.2504 B(  7-C ,  8-N ) :   1.1546
B(  7-C ,  9-C ) :   1.2860 B(  8-N , 14-H ) :   0.9130 B(  9-C , 10-C ) :   1.4658
B(  9-C , 55-H ) :   0.9751 B( 10-C , 11-C ) :   1.4174 B( 10-C , 15-H ) :   0.9812
B( 11-C , 12-C ) :   1.4055 B( 11-C , 13-H ) :   0.9585 B( 12-C , 28-C ) :   0.9396
B( 20-S , 21-C ) :   1.2971 B( 20-S , 24-C ) :   1.2881 B( 21-C , 22-N ) :   1.7148
B( 21-C , 25-C ) :   0.9440 B( 22-N , 23-N ) :   1.1652 B( 23-N , 24-C ) :   1.5723
B( 24-C , 32-S ) :  -0.1082 B( 24-C , 33-C ) :   0.8784 B( 24-C , 34-C ) :  -0.1033
B( 25-C , 26-N ) :   1.7059 B( 25-C , 29-S ) :   1.3029 B( 26-N , 27-N ) :   1.1211
B( 27-N , 28-C ) :   1.6442 B( 28-C , 29-S ) :   1.2891 B( 30-C , 31-C ) :   1.6935
B( 30-C , 32-S ) :   0.1143 B( 30-C , 34-C ) :   1.2770 B( 30-C , 41-H ) :   0.9585
B( 31-C , 32-S ) :   1.2760 B( 31-C , 56-H ) :   0.9429 B( 32-S , 33-C ) :   1.2780
B( 33-C , 34-C ) :   1.5186 B( 34-C , 35-C ) :   0.8982 B( 35-C , 36-C ) :   0.9779
B( 35-C , 45-H ) :   0.9738 B( 35-C , 46-H ) :   0.9784 B( 36-C , 37-C ) :   0.9781
B( 36-C , 47-H ) :   0.9713 B( 36-C , 48-H ) :   0.9701 B( 37-C , 38-C ) :   0.9844
B( 37-C , 49-H ) :   0.9638 B( 37-C , 50-H ) :   0.9747 B( 38-C , 39-C ) :   0.9754
B( 38-C , 53-H ) :   0.9783 B( 38-C , 54-H ) :   0.9752 B( 39-C , 40-C ) :   0.9822
B( 39-C , 51-H ) :   0.9755 B( 39-C , 52-H ) :   0.9700 B( 40-C , 42-H ) :   0.9796
B( 40-C , 43-H ) :   0.9829 B( 40-C , 44-H ) :   0.9854

Dispersion correction           -0.027019263
FINAL SINGLE POINT ENERGY     -2473.051209673251

DIPOLE MOMENT
-------------
                                X             Y             Z
Electronic contribution:    -44.55072      -2.57446     -26.17415
Nuclear contribution   :     44.13948       2.76735      26.43780
                        -----------------------------------------
Total Dipole Moment    :     -0.41123       0.19289       0.26366
                        -----------------------------------------
Magnitude (a.u.)       :      0.52520
Magnitude (Debye)      :      1.33495

                             ****ORCA TERMINATED NORMALLY****
TOTAL RUN TIME: 0 days 0 hours 14 minutes 19 seconds 115 msec
