                         Program Version 4.0.0 -  RELEASE  -
|  1> #
|  2> !wB97X-D3 def2-TZVP def2/J RIJCOSX Grid5 FinalGrid6 TightSCF
|  3> %pal
|  4>  nprocs 24
|  5> end
|  6> %tddft
|  7>   Mode sTDDFT
|  8>   nroots 2
|  9>   Ethresh 10.0
| 10>   maxcore 5000
| 11>   triplets true
| 12> end
| 13> * xyz 0 1
| 14> C 7.47661659 1.40651512 -3.43437363
| 15> C 7.05615018 0.73267689 -2.29025510
| 16> C 8.00599751 0.04284032 -1.51351828
| 17> C 9.36452373 0.05490175 -1.93790761
| 18> C 9.79205732 0.73874785 -3.08624057
| 19> C 8.82640487 1.41532914 -3.82754161
| 20> C 7.95481361 -0.77242557 -0.30924631
| 21> C 9.28902434 -1.22341788 -0.08369186
| 22> N 10.11892440 -0.70307668 -1.05967940
| 23> C 9.64190569 -2.08146794 0.96833525
| 24> C 8.61959118 -2.51283945 1.81106743
| 25> C 7.29935849 -2.08933274 1.61435892
| 26> C 6.93273030 -1.20801853 0.57897352
| 27> H 6.53139773 -2.43572793 2.30215133
| 28> H 11.11312156 -0.87857375 -1.13711320
| 29> H 8.84614450 -3.18396266 2.63469066
| 30> H 6.00871969 0.74639730 -2.00319309
| 31> H 10.83648644 0.73537469 -3.38675162
| 32> H 9.11956097 1.95637730 -4.72348194
| 33> H 6.74738094 1.94163548 -4.03672251
| 34> S 0.60080086 0.77682313 0.26075174
| 35> C 1.68844132 -0.52019317 0.78005629
| 36> N 1.05931489 -1.54673564 1.34026233
| 37> N -0.29477671 -1.38117775 1.40026132
| 38> C -0.72158510 -0.22501084 0.90105756
| 39> C 3.12140098 -0.46560119 0.60294489
| 40> N 3.76141213 0.54992978 0.03843132
| 41> N 5.11771283 0.36948894 -0.02210397
| 42> C 5.53267619 -0.78018267 0.48540020
| 43> S 4.19694590 -1.77162297 1.12595208
| 44> C -4.84546767 0.96208842 0.90399228
| 45> C -3.90241661 1.75234998 0.22250797
| 46> C -2.53946960 1.35852006 0.21524254
| 47> C -2.12387813 0.18359874 0.90032266
| 48> C -3.09731014 -0.61631802 1.56067819
| 49> C -4.46218008 -0.22127219 1.55513353
| 50> N -2.70517129 -1.72063714 2.33718234
| 51> C -3.14294099 -2.92363468 2.16825531
| 52> C -4.00652341 -3.36919952 1.00307467
| 53> N -5.39120919 -0.96282871 2.33014656
| 54> C -6.53522234 -1.35308507 1.87082986
| 55> C -7.00420845 -1.18363006 0.43543952
| 56> N -4.26121038 3.01026732 -0.32530526
| 57> C -5.28486508 3.17854589 -1.09819014
| 58> C -6.16939153 2.06585157 -1.63511753
| 59> N -1.56271965 2.19304186 -0.36444422
| 60> C -1.59201083 2.61444096 -1.58911097
| 61> C -2.57141525 2.14431708 -2.64450018
| 62> C -2.73745881 -3.99924464 3.14294787
| 63> C -7.48622073 -2.07544202 2.79240456
| 64> C -5.62787052 4.57218051 -1.56319072
| 65> C -0.53607942 3.58618957 -2.04884401
| 66> H -2.13578832 -3.59013782 3.94876190
| 67> H -2.16133615 -4.77596155 2.63942080
| 68> H -3.61669311 -4.48103293 3.57151239
| 69> H -3.58120022 -4.25530257 0.53339643
| 70> H -5.00753057 -3.63230962 1.34620741
| 71> H -4.09812994 -2.58551927 0.25523917
| 72> H -0.99477979 4.49832395 -2.43126693
| 73> H 0.13468514 3.84861989 -1.23621236
| 74> H 0.05176156 3.16017694 -2.86228070
| 75> H -3.26192954 2.94333439 -2.91526162
| 76> H -3.15335460 1.29459707 -2.29691858
| 77> H -2.03658790 1.85868746 -3.54983670
| 78> H -6.43811913 2.26338208 -2.67135086
| 79> H -5.67240691 1.10025584 -1.57764675
| 80> H -7.09797795 2.00051632 -1.06745491
| 81> H -4.96073384 5.30736328 -1.12343344
| 82> H -6.65301621 4.82654059 -1.29369545
| 83> H -5.55850596 4.64438408 -2.64932382
| 84> H -7.08613914 -2.13486839 3.80003932
| 85> H -8.44920824 -1.56592013 2.82871614
| 86> H -7.67623335 -3.08752834 2.43303190
| 87> H -6.16856724 -1.00350331 -0.23673765
| 88> H -7.53888039 -2.07197236 0.10407314
| 89> H -7.69180875 -0.34169689 0.35021248
| 90> H 10.66932228 -2.40397923 1.11195035
| 91> H -5.87505495 1.29968028 0.97412935
| 92> *
| 93> $new_job
| 94> #
| 95> !wB97X-D3 def2-TZVP def2/J RIJCOSX Grid5 FinalGrid6 TightSCF
| 96> %pal
| 97>  nprocs 24
| 98> end
| 99> %elprop
|100>    dipole     true
|101>    quadrupole true
|102> end
|103> %tddft
|104>   Mode sTDDFT
|105>   nroots 2
|106>   Ethresh 10.0
|107>   maxcore 5000
|108> end
|109> * xyz 0 1
|110> C 7.47661659 1.40651512 -3.43437363
|111> C 7.05615018 0.73267689 -2.29025510
|112> C 8.00599751 0.04284032 -1.51351828
|113> C 9.36452373 0.05490175 -1.93790761
|114> C 9.79205732 0.73874785 -3.08624057
|115> C 8.82640487 1.41532914 -3.82754161
|116> C 7.95481361 -0.77242557 -0.30924631
|117> C 9.28902434 -1.22341788 -0.08369186
|118> N 10.11892440 -0.70307668 -1.05967940
|119> C 9.64190569 -2.08146794 0.96833525
|120> C 8.61959118 -2.51283945 1.81106743
|121> C 7.29935849 -2.08933274 1.61435892
|122> C 6.93273030 -1.20801853 0.57897352
|123> H 6.53139773 -2.43572793 2.30215133
|124> H 11.11312156 -0.87857375 -1.13711320
|125> H 8.84614450 -3.18396266 2.63469066
|126> H 6.00871969 0.74639730 -2.00319309
|127> H 10.83648644 0.73537469 -3.38675162
|128> H 9.11956097 1.95637730 -4.72348194
|129> H 6.74738094 1.94163548 -4.03672251
|130> S 0.60080086 0.77682313 0.26075174
|131> C 1.68844132 -0.52019317 0.78005629
|132> N 1.05931489 -1.54673564 1.34026233
|133> N -0.29477671 -1.38117775 1.40026132
|134> C -0.72158510 -0.22501084 0.90105756
|135> C 3.12140098 -0.46560119 0.60294489
|136> N 3.76141213 0.54992978 0.03843132
|137> N 5.11771283 0.36948894 -0.02210397
|138> C 5.53267619 -0.78018267 0.48540020
|139> S 4.19694590 -1.77162297 1.12595208
|140> C -4.84546767 0.96208842 0.90399228
|141> C -3.90241661 1.75234998 0.22250797
|142> C -2.53946960 1.35852006 0.21524254
|143> C -2.12387813 0.18359874 0.90032266
|144> C -3.09731014 -0.61631802 1.56067819
|145> C -4.46218008 -0.22127219 1.55513353
|146> N -2.70517129 -1.72063714 2.33718234
|147> C -3.14294099 -2.92363468 2.16825531
|148> C -4.00652341 -3.36919952 1.00307467
|149> N -5.39120919 -0.96282871 2.33014656
|150> C -6.53522234 -1.35308507 1.87082986
|151> C -7.00420845 -1.18363006 0.43543952
|152> N -4.26121038 3.01026732 -0.32530526
|153> C -5.28486508 3.17854589 -1.09819014
|154> C -6.16939153 2.06585157 -1.63511753
|155> N -1.56271965 2.19304186 -0.36444422
|156> C -1.59201083 2.61444096 -1.58911097
|157> C -2.57141525 2.14431708 -2.64450018
|158> C -2.73745881 -3.99924464 3.14294787
|159> C -7.48622073 -2.07544202 2.79240456
|160> C -5.62787052 4.57218051 -1.56319072
|161> C -0.53607942 3.58618957 -2.04884401
|162> H -2.13578832 -3.59013782 3.94876190
|163> H -2.16133615 -4.77596155 2.63942080
|164> H -3.61669311 -4.48103293 3.57151239
|165> H -3.58120022 -4.25530257 0.53339643
|166> H -5.00753057 -3.63230962 1.34620741
|167> H -4.09812994 -2.58551927 0.25523917
|168> H -0.99477979 4.49832395 -2.43126693
|169> H 0.13468514 3.84861989 -1.23621236
|170> H 0.05176156 3.16017694 -2.86228070
|171> H -3.26192954 2.94333439 -2.91526162
|172> H -3.15335460 1.29459707 -2.29691858
|173> H -2.03658790 1.85868746 -3.54983670
|174> H -6.43811913 2.26338208 -2.67135086
|175> H -5.67240691 1.10025584 -1.57764675
|176> H -7.09797795 2.00051632 -1.06745491
|177> H -4.96073384 5.30736328 -1.12343344
|178> H -6.65301621 4.82654059 -1.29369545
|179> H -5.55850596 4.64438408 -2.64932382
|180> H -7.08613914 -2.13486839 3.80003932
|181> H -8.44920824 -1.56592013 2.82871614
|182> H -7.67623335 -3.08752834 2.43303190
|183> H -6.16856724 -1.00350331 -0.23673765
|184> H -7.53888039 -2.07197236 0.10407314
|185> H -7.69180875 -0.34169689 0.35021248
|186> H 10.66932228 -2.40397923 1.11195035
|187> H -5.87505495 1.29968028 0.97412935
|188> *
|189>
|190>                          ****END OF INPUT****
 Total Charge           Charge          ....    0
 Multiplicity           Mult            ....    1
 Number of Electrons    NEL             ....  332
Dispersion correction           -0.043791917
FINAL SINGLE POINT ENERGY     -2604.733151501785

CARTESIAN COORDINATES (ANGSTROEM)
---------------------------------
  C      7.476617    1.406515   -3.434374
  C      7.056150    0.732677   -2.290255
  C      8.005998    0.042840   -1.513518
  C      9.364524    0.054902   -1.937908
  C      9.792057    0.738748   -3.086241
  C      8.826405    1.415329   -3.827542
  C      7.954814   -0.772426   -0.309246
  C      9.289024   -1.223418   -0.083692
  N     10.118924   -0.703077   -1.059679
  C      9.641906   -2.081468    0.968335
  C      8.619591   -2.512839    1.811067
  C      7.299358   -2.089333    1.614359
  C      6.932730   -1.208019    0.578974
  H      6.531398   -2.435728    2.302151
  H     11.113122   -0.878574   -1.137113
  H      8.846144   -3.183963    2.634691
  H      6.008720    0.746397   -2.003193
  H     10.836486    0.735375   -3.386752
  H      9.119561    1.956377   -4.723482
  H      6.747381    1.941635   -4.036723
  S      0.600801    0.776823    0.260752
  C      1.688441   -0.520193    0.780056
  N      1.059315   -1.546736    1.340262
  N     -0.294777   -1.381178    1.400261
  C     -0.721585   -0.225011    0.901058
  C      3.121401   -0.465601    0.602945
  N      3.761412    0.549930    0.038431
  N      5.117713    0.369489   -0.022104
  C      5.532676   -0.780183    0.485400
  S      4.196946   -1.771623    1.125952
  C     -4.845468    0.962088    0.903992
  C     -3.902417    1.752350    0.222508
  C     -2.539470    1.358520    0.215243
  C     -2.123878    0.183599    0.900323
  C     -3.097310   -0.616318    1.560678
  C     -4.462180   -0.221272    1.555134
  N     -2.705171   -1.720637    2.337182
  C     -3.142941   -2.923635    2.168255
  C     -4.006523   -3.369200    1.003075
  N     -5.391209   -0.962829    2.330147
  C     -6.535222   -1.353085    1.870830
  C     -7.004208   -1.183630    0.435440
  N     -4.261210    3.010267   -0.325305
  C     -5.284865    3.178546   -1.098190
  C     -6.169392    2.065852   -1.635118
  N     -1.562720    2.193042   -0.364444
  C     -1.592011    2.614441   -1.589111
  C     -2.571415    2.144317   -2.644500
  C     -2.737459   -3.999245    3.142948
  C     -7.486221   -2.075442    2.792405
  C     -5.627871    4.572181   -1.563191
  C     -0.536079    3.586190   -2.048844
  H     -2.135788   -3.590138    3.948762
  H     -2.161336   -4.775962    2.639421
  H     -3.616693   -4.481033    3.571512
  H     -3.581200   -4.255303    0.533396
  H     -5.007531   -3.632310    1.346207
  H     -4.098130   -2.585519    0.255239
  H     -0.994780    4.498324   -2.431267
  H      0.134685    3.848620   -1.236212
  H      0.051762    3.160177   -2.862281
  H     -3.261930    2.943334   -2.915262
  H     -3.153355    1.294597   -2.296919
  H     -2.036588    1.858687   -3.549837
  H     -6.438119    2.263382   -2.671351
  H     -5.672407    1.100256   -1.577647
  H     -7.097978    2.000516   -1.067455
  H     -4.960734    5.307363   -1.123433
  H     -6.653016    4.826541   -1.293695
  H     -5.558506    4.644384   -2.649324
  H     -7.086139   -2.134868    3.800039
  H     -8.449208   -1.565920    2.828716
  H     -7.676233   -3.087528    2.433032
  H     -6.168567   -1.003503   -0.236738
  H     -7.538880   -2.071972    0.104073
  H     -7.691809   -0.341697    0.350212
  H     10.669322   -2.403979    1.111950
  H     -5.875055    1.299680    0.974129

 Multiplicity           Mult            ....    1
 Number of Electrons    NEL             ....  332
 Basis Dimension        Dim             .... 1605

ORBITAL ENERGIES
----------------

  NO   OCC          E(Eh)            E(eV)
   0   2.0000     -88.993737     -2421.6427
   1   2.0000     -88.984252     -2421.3846
   2   2.0000     -14.465184      -393.6177
   3   2.0000     -14.457561      -393.4102
   4   2.0000     -14.452243      -393.2655
   5   2.0000     -14.450109      -393.2075
   6   2.0000     -14.438763      -392.8987
   7   2.0000     -14.424313      -392.5055
   8   2.0000     -14.423541      -392.4845
   9   2.0000     -14.421046      -392.4166
  10   2.0000     -14.407008      -392.0346
  11   2.0000     -10.364439      -282.0307
  12   2.0000     -10.361901      -281.9617
  13   2.0000     -10.352610      -281.7089
  14   2.0000     -10.350381      -281.6482
  15   2.0000     -10.349607      -281.6271
  16   2.0000     -10.347384      -281.5666
  17   2.0000     -10.344570      -281.4901
  18   2.0000     -10.329669      -281.0846
  19   2.0000     -10.328560      -281.0544
  20   2.0000     -10.325206      -280.9631
  21   2.0000     -10.323145      -280.9071
  22   2.0000     -10.320720      -280.8411
  23   2.0000     -10.317379      -280.7502
  24   2.0000     -10.315943      -280.7111
  25   2.0000     -10.313252      -280.6379
  26   2.0000     -10.303897      -280.3833
  27   2.0000     -10.298195      -280.2281
  28   2.0000     -10.292787      -280.0810
  29   2.0000     -10.291586      -280.0483
  30   2.0000     -10.289687      -279.9966
  31   2.0000     -10.289520      -279.9921
  32   2.0000     -10.289072      -279.9799
  33   2.0000     -10.287261      -279.9306
  34   2.0000     -10.284778      -279.8630
  35   2.0000     -10.284157      -279.8461
  36   2.0000     -10.283370      -279.8247
  37   2.0000     -10.281042      -279.7614
  38   2.0000     -10.279632      -279.7230
  39   2.0000     -10.278748      -279.6990
  40   2.0000     -10.276600      -279.6405
  41   2.0000     -10.273719      -279.5621
  42   2.0000     -10.271859      -279.5115
  43   2.0000     -10.265992      -279.3519
  44   2.0000     -10.262742      -279.2634
  45   2.0000      -8.090020      -220.1406
  46   2.0000      -8.079532      -219.8552
  47   2.0000      -6.043076      -164.4405
  48   2.0000      -6.039189      -164.3347
  49   2.0000      -6.037114      -164.2782
  50   2.0000      -6.032771      -164.1600
  51   2.0000      -6.028610      -164.0468
  52   2.0000      -6.026594      -163.9920
  53   2.0000      -1.139734       -31.0137
  54   2.0000      -1.127212       -30.6730
  55   2.0000      -1.102223       -29.9930
  56   2.0000      -1.070143       -29.1201
  57   2.0000      -1.057472       -28.7753
  58   2.0000      -1.040249       -28.3066
  59   2.0000      -1.029399       -28.0114
  60   2.0000      -0.983757       -26.7694
  61   2.0000      -0.968859       -26.3640
  62   2.0000      -0.960420       -26.1344
  63   2.0000      -0.955362       -25.9967
  64   2.0000      -0.932898       -25.3854
  65   2.0000      -0.920466       -25.0472
  66   2.0000      -0.908126       -24.7114
  67   2.0000      -0.898888       -24.4600
  68   2.0000      -0.892313       -24.2811
  69   2.0000      -0.888865       -24.1872
  70   2.0000      -0.880480       -23.9591
  71   2.0000      -0.870214       -23.6797
  72   2.0000      -0.867413       -23.6035
  73   2.0000      -0.845765       -23.0144
  74   2.0000      -0.840701       -22.8766
  75   2.0000      -0.835360       -22.7313
  76   2.0000      -0.833050       -22.6684
  77   2.0000      -0.827956       -22.5298
  78   2.0000      -0.825945       -22.4751
  79   2.0000      -0.816043       -22.2057
  80   2.0000      -0.806841       -21.9553
  81   2.0000      -0.773405       -21.0454
  82   2.0000      -0.760923       -20.7058
  83   2.0000      -0.747661       -20.3449
  84   2.0000      -0.736788       -20.0490
  85   2.0000      -0.721301       -19.6276
  86   2.0000      -0.716451       -19.4956
  87   2.0000      -0.708582       -19.2815
  88   2.0000      -0.699040       -19.0218
  89   2.0000      -0.678302       -18.4575
  90   2.0000      -0.675552       -18.3827
  91   2.0000      -0.655195       -17.8288
  92   2.0000      -0.640595       -17.4315
  93   2.0000      -0.638440       -17.3728
  94   2.0000      -0.627112       -17.0646
  95   2.0000      -0.617429       -16.8011
  96   2.0000      -0.610444       -16.6110
  97   2.0000      -0.609079       -16.5739
  98   2.0000      -0.602471       -16.3941
  99   2.0000      -0.599872       -16.3234
 100   2.0000      -0.591535       -16.0965
 101   2.0000      -0.580289       -15.7905
 102   2.0000      -0.577527       -15.7153
 103   2.0000      -0.570408       -15.5216
 104   2.0000      -0.568349       -15.4656
 105   2.0000      -0.563814       -15.3421
 106   2.0000      -0.561007       -15.2658
 107   2.0000      -0.557407       -15.1678
 108   2.0000      -0.554915       -15.1000
 109   2.0000      -0.554410       -15.0863
 110   2.0000      -0.553041       -15.0490
 111   2.0000      -0.547879       -14.9085
 112   2.0000      -0.545209       -14.8359
 113   2.0000      -0.542291       -14.7565
 114   2.0000      -0.537765       -14.6333
 115   2.0000      -0.537083       -14.6148
 116   2.0000      -0.532159       -14.4808
 117   2.0000      -0.529781       -14.4161
 118   2.0000      -0.526050       -14.3146
 119   2.0000      -0.522577       -14.2200
 120   2.0000      -0.519906       -14.1474
 121   2.0000      -0.518531       -14.1099
 122   2.0000      -0.512673       -13.9505
 123   2.0000      -0.509056       -13.8521
 124   2.0000      -0.508022       -13.8240
 125   2.0000      -0.504703       -13.7337
 126   2.0000      -0.499612       -13.5951
 127   2.0000      -0.498650       -13.5690
 128   2.0000      -0.495473       -13.4825
 129   2.0000      -0.491671       -13.3790
 130   2.0000      -0.487512       -13.2659
 131   2.0000      -0.485899       -13.2220
 132   2.0000      -0.481178       -13.0935
 133   2.0000      -0.476550       -12.9676
 134   2.0000      -0.472346       -12.8532
 135   2.0000      -0.470559       -12.8046
 136   2.0000      -0.469772       -12.7831
 137   2.0000      -0.468563       -12.7502
 138   2.0000      -0.464173       -12.6308
 139   2.0000      -0.462100       -12.5744
 140   2.0000      -0.457143       -12.4395
 141   2.0000      -0.440244       -11.9796
 142   2.0000      -0.439015       -11.9462
 143   2.0000      -0.429283       -11.6814
 144   2.0000      -0.428036       -11.6474
 145   2.0000      -0.422634       -11.5004
 146   2.0000      -0.407864       -11.0985
 147   2.0000      -0.404827       -11.0159
 148   2.0000      -0.394893       -10.7456
 149   2.0000      -0.391028       -10.6404
 150   2.0000      -0.387605       -10.5473
 151   2.0000      -0.386950       -10.5294
 152   2.0000      -0.379705       -10.3323
 153   2.0000      -0.374063       -10.1788
 154   2.0000      -0.366068        -9.9612
 155   2.0000      -0.360590        -9.8122
 156   2.0000      -0.359034        -9.7698
 157   2.0000      -0.353967        -9.6319
 158   2.0000      -0.349226        -9.5029
 159   2.0000      -0.345885        -9.4120
 160   2.0000      -0.328443        -8.9374
 161   2.0000      -0.324941        -8.8421
 162   2.0000      -0.297639        -8.0992
 163   2.0000      -0.291123        -7.9219
 164   2.0000      -0.281984        -7.6732
 165   2.0000      -0.271524        -7.3885
 166   0.0000      -0.018492        -0.5032
 167   0.0000       0.012433         0.3383
 168   0.0000       0.032978         0.8974
 169   0.0000       0.036305         0.9879
 170   0.0000       0.053974         1.4687

MULLIKEN ATOMIC CHARGES
-----------------------
   0 C :   -0.174889
   1 C :   -0.131149
   2 C :   -0.041091
   3 C :    0.178310
   4 C :   -0.245231
   5 C :   -0.075502
   6 C :   -0.019366
   7 C :    0.188296
   8 N :   -0.302977
   9 C :   -0.229160
  10 C :   -0.092552
  11 C :   -0.286742
  12 C :    0.127269
  13 H :    0.131295
  14 H :    0.235365
  15 H :    0.125738
  16 H :    0.157066
  17 H :    0.111159
  18 H :    0.119726
  19 H :    0.115655
  20 S :    0.081169
  21 C :    0.100920
  22 N :   -0.225634
  23 N :   -0.103409
  24 C :    0.085483
  25 C :    0.113517
  26 N :   -0.174682
  27 N :   -0.191385
  28 C :    0.153575
  29 S :    0.055169
  30 C :   -0.449029
  31 C :    0.166819
  32 C :    0.051983
  33 C :    0.117791
  34 C :   -0.049618
  35 C :    0.221762
  36 N :   -0.219635
  37 C :    0.184952
  38 C :   -0.371309
  39 N :   -0.240895
  40 C :    0.084112
  41 C :   -0.371442
  42 N :   -0.248051
  43 C :    0.080969
  44 C :   -0.374843
  45 N :   -0.349693
  46 C :    0.197118
  47 C :   -0.370883
  48 C :   -0.350794
  49 C :   -0.338383
  50 C :   -0.339321
  51 C :   -0.353637
  52 H :    0.143567
  53 H :    0.124920
  54 H :    0.116899
  55 H :    0.139965
  56 H :    0.129046
  57 H :    0.131263
  58 H :    0.132349
  59 H :    0.152157
  60 H :    0.131494
  61 H :    0.136750
  62 H :    0.139633
  63 H :    0.143189
  64 H :    0.139702
  65 H :    0.144858
  66 H :    0.144561
  67 H :    0.145147
  68 H :    0.129585
  69 H :    0.120892
  70 H :    0.145743
  71 H :    0.127056
  72 H :    0.121489
  73 H :    0.143622
  74 H :    0.139203
  75 H :    0.142330
  76 H :    0.118273
  77 H :    0.152390
Sum of atomic charges:   -0.0000000

LOEWDIN ATOMIC CHARGES
----------------------
   0 C :   -0.159887
   1 C :   -0.091171
   2 C :   -0.077375
   3 C :   -0.145233
   4 C :   -0.137985
   5 C :   -0.141397
   6 C :   -0.028811
   7 C :   -0.143762
   8 N :    0.200454
   9 C :   -0.121009
  10 C :   -0.142360
  11 C :   -0.123545
  12 C :   -0.114699
  13 H :    0.145652
  14 H :    0.192873
  15 H :    0.147320
  16 H :    0.154515
  17 H :    0.141930
  18 H :    0.143670
  19 H :    0.143055
  20 S :    0.749892
  21 C :   -0.471425
  22 N :    0.036039
  23 N :    0.052392
  24 C :   -0.370162
  25 C :   -0.455678
  26 N :    0.038928
  27 N :    0.045030
  28 C :   -0.379744
  29 S :    0.730721
  30 C :   -0.091438
  31 C :   -0.194300
  32 C :   -0.143546
  33 C :   -0.097626
  34 C :   -0.126195
  35 C :   -0.187779
  36 N :    0.200700
  37 C :   -0.248823
  38 C :   -0.261277
  39 N :    0.176546
  40 C :   -0.271118
  41 C :   -0.272640
  42 N :    0.172745
  43 C :   -0.272761
  44 C :   -0.272734
  45 N :    0.158524
  46 C :   -0.244793
  47 C :   -0.257210
  48 C :   -0.255831
  49 C :   -0.262515
  50 C :   -0.263390
  51 C :   -0.256490
  52 H :    0.133512
  53 H :    0.131463
  54 H :    0.128126
  55 H :    0.129821
  56 H :    0.131610
  57 H :    0.130124
  58 H :    0.133487
  59 H :    0.134329
  60 H :    0.133302
  61 H :    0.135709
  62 H :    0.133002
  63 H :    0.131671
  64 H :    0.130236
  65 H :    0.131025
  66 H :    0.132070
  67 H :    0.132136
  68 H :    0.131140
  69 H :    0.127937
  70 H :    0.132445
  71 H :    0.130300
  72 H :    0.128330
  73 H :    0.130852
  74 H :    0.130072
  75 H :    0.131307
  76 H :    0.144895
  77 H :    0.154823

  Mayer bond orders larger than 0.1
B(  0-C ,  1-C ) :   1.5320 B(  0-C ,  5-C ) :   1.3524 B(  0-C , 19-H ) :   0.9882
B(  1-C ,  2-C ) :   1.2775 B(  1-C , 16-H ) :   0.9353 B(  2-C ,  3-C ) :   1.3494
B(  2-C ,  6-C ) :   1.0755 B(  3-C ,  4-C ) :   1.3023 B(  3-C ,  8-N ) :   1.1156
B(  4-C ,  5-C ) :   1.4823 B(  4-C , 17-H ) :   0.9796 B(  5-C , 18-H ) :   0.9815
B(  6-C ,  7-C ) :   1.3234 B(  6-C , 12-C ) :   1.2505 B(  7-C ,  8-N ) :   1.1527
B(  7-C ,  9-C ) :   1.2842 B(  8-N , 14-H ) :   0.9127 B(  9-C , 10-C ) :   1.4672
B(  9-C , 76-H ) :   0.9751 B( 10-C , 11-C ) :   1.4203 B( 10-C , 15-H ) :   0.9802
B( 11-C , 12-C ) :   1.4074 B( 11-C , 13-H ) :   0.9593 B( 12-C , 28-C ) :   0.9307
B( 20-S , 21-C ) :   1.3246 B( 20-S , 24-C ) :   1.3271 B( 21-C , 22-N ) :   1.6960
B( 21-C , 25-C ) :   0.9447 B( 22-N , 23-N ) :   1.1559 B( 23-N , 24-C ) :   1.7030
B( 24-C , 33-C ) :   0.9247 B( 25-C , 26-N ) :   1.7172 B( 25-C , 29-S ) :   1.3054
B( 26-N , 27-N ) :   1.1130 B( 27-N , 28-C ) :   1.6501 B( 28-C , 29-S ) :   1.2874
B( 30-C , 31-C ) :   1.3117 B( 30-C , 35-C ) :   1.3195 B( 30-C , 77-H ) :   0.9708
B( 31-C , 32-C ) :   1.3875 B( 31-C , 42-N ) :   1.0104 B( 32-C , 33-C ) :   1.2763
B( 32-C , 45-N ) :   1.0391 B( 33-C , 34-C ) :   1.2687 B( 34-C , 35-C ) :   1.3358
B( 34-C , 36-N ) :   1.1729 B( 35-C , 39-N ) :   1.0208 B( 36-N , 37-C ) :   1.8821
B( 37-C , 38-C ) :   0.9435 B( 37-C , 48-C ) :   0.9497 B( 38-C , 55-H ) :   0.9574
B( 38-C , 56-H ) :   0.9614 B( 38-C , 57-H ) :   0.9803 B( 39-N , 40-C ) :   1.8981
B( 40-C , 41-C ) :   0.9394 B( 40-C , 49-C ) :   0.9723 B( 41-C , 73-H ) :   0.9770
B( 41-C , 74-H ) :   0.9599 B( 41-C , 75-H ) :   0.9643 B( 42-N , 43-C ) :   1.8932
B( 43-C , 44-C ) :   0.9416 B( 43-C , 50-C ) :   0.9721 B( 44-C , 64-H ) :   0.9597
B( 44-C , 65-H ) :   0.9758 B( 44-C , 66-H ) :   0.9642 B( 45-N , 46-C ) :   1.8257
B( 46-C , 47-C ) :   0.9567 B( 46-C , 51-C ) :   0.9562 B( 47-C , 61-H ) :   0.9594
B( 47-C , 62-H ) :   0.9757 B( 47-C , 63-H ) :   0.9546 B( 48-C , 52-H ) :   0.9875
B( 48-C , 53-H ) :   0.9607 B( 48-C , 54-H ) :   0.9643 B( 49-C , 70-H ) :   0.9859
B( 49-C , 71-H ) :   0.9619 B( 49-C , 72-H ) :   0.9584 B( 50-C , 67-H ) :   0.9856
B( 50-C , 68-H ) :   0.9618 B( 50-C , 69-H ) :   0.9584 B( 51-C , 58-H ) :   0.9595
B( 51-C , 59-H ) :   0.9861 B( 51-C , 60-H ) :   0.9584

Dispersion correction           -0.043791917
FINAL SINGLE POINT ENERGY     -2604.733151405349

DIPOLE MOMENT
-------------
                                X             Y             Z
Electronic contribution:     72.72362      -4.52658      13.57081
Nuclear contribution   :    -74.60425       3.97450     -15.57110
                        -----------------------------------------
Total Dipole Moment    :     -1.88063      -0.55208      -2.00028
                        -----------------------------------------
Magnitude (a.u.)       :      2.80048
Magnitude (Debye)      :      7.11826

                             ****ORCA TERMINATED NORMALLY****
TOTAL RUN TIME: 0 days 0 hours 29 minutes 59 seconds 219 msec
