                         Program Version 4.0.0 -  RELEASE  -
|  1> #
|  2> !wB97X-D3 def2-TZVP def2/J RIJCOSX Grid5 FinalGrid6 TightSCF
|  3> %pal
|  4>  nprocs 24
|  5> end
|  6> %tddft
|  7>   Mode sTDDFT
|  8>   nroots 2
|  9>   Ethresh 10.0
| 10>   maxcore 5000
| 11>   triplets true
| 12> end
| 13> * xyz 0 1
| 14> C -5.30570858 1.62369560 -2.14791431
| 15> C -4.38604380 1.00016303 -1.30881717
| 16> C -4.83210448 -0.00368260 -0.42766078
| 17> C -6.21069820 -0.35726129 -0.44843113
| 18> C -7.14051584 0.27371694 -1.28900432
| 19> C -6.66701248 1.27221539 -2.13581721
| 20> C -4.19704093 -0.87563612 0.54870813
| 21> C -5.22760249 -1.72810889 1.04500979
| 22> N -6.42717654 -1.38772065 0.44956016
| 23> C -4.99312909 -2.75066470 1.97636316
| 24> C -3.68300859 -2.93231838 2.41305289
| 25> C -2.64986192 -2.10695808 1.95011305
| 26> C -2.87531958 -1.06062248 1.03607284
| 27> H -1.64299687 -2.26062568 2.32887123
| 28> H -7.31494216 -1.84503000 0.61761911
| 29> H -3.45630168 -3.71776162 3.12810585
| 30> H -3.34119868 1.29022295 -1.34789192
| 31> H -8.18877351 -0.01239490 -1.28224158
| 32> H -7.35714087 1.78286686 -2.80194008
| 33> H -4.96559499 2.39943769 -2.82817385
| 34> C 3.83889910 1.12376216 -0.12043849
| 35> N 3.34670255 2.33209909 -0.44113563
| 36> O 1.99093953 2.25789334 -0.32443735
| 37> C 1.63247653 1.03069537 0.06304315
| 38> C 2.76138640 0.24446595 0.21038255
| 39> C 0.21803252 0.73873647 0.25189356
| 40> N -0.73299965 1.66350545 0.05339734
| 41> O -1.92024986 1.05742147 0.31409827
| 42> C -1.72996022 -0.22258367 0.66581481
| 43> C -0.37276222 -0.49236739 0.65643234
| 44> H 0.12169401 -1.42609540 0.88100317
| 45> H 2.80045906 -0.77368439 0.57094228
| 46> C 8.06146808 0.31494497 0.19263709
| 47> C 7.19300393 -0.70332863 -0.24455291
| 48> C 5.82457139 -0.42409908 -0.37930133
| 49> C 5.29140296 0.85851826 -0.07883376
| 50> C 6.21065944 1.87218392 0.32822416
| 51> C 7.57999752 1.60131876 0.47391026
| 52> O 5.78381551 3.11841292 0.60970793
| 53> O 5.02383830 -1.41233896 -0.84617248
| 54> O 9.38418912 0.06175930 0.33353575
| 55> H 9.57711888 -0.85574510 0.10161386
| 56> H 4.13158694 -1.07797552 -1.01044085
| 57> H 4.82664640 3.19950313 0.44284134
| 58> H 8.25558610 2.38351741 0.79753897
| 59> H -5.80161615 -3.38159597 2.33448345
| 60> H 7.56588511 -1.69225692 -0.48887135
| 61> *
| 62> $new_job
| 63> #
| 64> !wB97X-D3 def2-TZVP def2/J RIJCOSX Grid5 FinalGrid6 TightSCF
| 65> %pal
| 66>  nprocs 24
| 67> end
| 68> %elprop
| 69>    dipole     true
| 70>    quadrupole true
| 71> end
| 72> %tddft
| 73>   Mode sTDDFT
| 74>   nroots 2
| 75>   Ethresh 10.0
| 76>   maxcore 5000
| 77> end
| 78> * xyz 0 1
| 79> C -5.30570858 1.62369560 -2.14791431
| 80> C -4.38604380 1.00016303 -1.30881717
| 81> C -4.83210448 -0.00368260 -0.42766078
| 82> C -6.21069820 -0.35726129 -0.44843113
| 83> C -7.14051584 0.27371694 -1.28900432
| 84> C -6.66701248 1.27221539 -2.13581721
| 85> C -4.19704093 -0.87563612 0.54870813
| 86> C -5.22760249 -1.72810889 1.04500979
| 87> N -6.42717654 -1.38772065 0.44956016
| 88> C -4.99312909 -2.75066470 1.97636316
| 89> C -3.68300859 -2.93231838 2.41305289
| 90> C -2.64986192 -2.10695808 1.95011305
| 91> C -2.87531958 -1.06062248 1.03607284
| 92> H -1.64299687 -2.26062568 2.32887123
| 93> H -7.31494216 -1.84503000 0.61761911
| 94> H -3.45630168 -3.71776162 3.12810585
| 95> H -3.34119868 1.29022295 -1.34789192
| 96> H -8.18877351 -0.01239490 -1.28224158
| 97> H -7.35714087 1.78286686 -2.80194008
| 98> H -4.96559499 2.39943769 -2.82817385
| 99> C 3.83889910 1.12376216 -0.12043849
|100> N 3.34670255 2.33209909 -0.44113563
|101> O 1.99093953 2.25789334 -0.32443735
|102> C 1.63247653 1.03069537 0.06304315
|103> C 2.76138640 0.24446595 0.21038255
|104> C 0.21803252 0.73873647 0.25189356
|105> N -0.73299965 1.66350545 0.05339734
|106> O -1.92024986 1.05742147 0.31409827
|107> C -1.72996022 -0.22258367 0.66581481
|108> C -0.37276222 -0.49236739 0.65643234
|109> H 0.12169401 -1.42609540 0.88100317
|110> H 2.80045906 -0.77368439 0.57094228
|111> C 8.06146808 0.31494497 0.19263709
|112> C 7.19300393 -0.70332863 -0.24455291
|113> C 5.82457139 -0.42409908 -0.37930133
|114> C 5.29140296 0.85851826 -0.07883376
|115> C 6.21065944 1.87218392 0.32822416
|116> C 7.57999752 1.60131876 0.47391026
|117> O 5.78381551 3.11841292 0.60970793
|118> O 5.02383830 -1.41233896 -0.84617248
|119> O 9.38418912 0.06175930 0.33353575
|120> H 9.57711888 -0.85574510 0.10161386
|121> H 4.13158694 -1.07797552 -1.01044085
|122> H 4.82664640 3.19950313 0.44284134
|123> H 8.25558610 2.38351741 0.79753897
|124> H -5.80161615 -3.38159597 2.33448345
|125> H 7.56588511 -1.69225692 -0.48887135
|126> *
|127>
|128>                          ****END OF INPUT****
 Total Charge           Charge          ....    0
 Multiplicity           Mult            ....    1
 Number of Electrons    NEL             ....  220
Dispersion correction           -0.021030655
FINAL SINGLE POINT ENERGY     -1464.017054277265

CARTESIAN COORDINATES (ANGSTROEM)
---------------------------------
  C     -5.305709    1.623696   -2.147914
  C     -4.386044    1.000163   -1.308817
  C     -4.832104   -0.003683   -0.427661
  C     -6.210698   -0.357261   -0.448431
  C     -7.140516    0.273717   -1.289004
  C     -6.667012    1.272215   -2.135817
  C     -4.197041   -0.875636    0.548708
  C     -5.227602   -1.728109    1.045010
  N     -6.427177   -1.387721    0.449560
  C     -4.993129   -2.750665    1.976363
  C     -3.683009   -2.932318    2.413053
  C     -2.649862   -2.106958    1.950113
  C     -2.875320   -1.060622    1.036073
  H     -1.642997   -2.260626    2.328871
  H     -7.314942   -1.845030    0.617619
  H     -3.456302   -3.717762    3.128106
  H     -3.341199    1.290223   -1.347892
  H     -8.188774   -0.012395   -1.282242
  H     -7.357141    1.782867   -2.801940
  H     -4.965595    2.399438   -2.828174
  C      3.838899    1.123762   -0.120438
  N      3.346703    2.332099   -0.441136
  O      1.990940    2.257893   -0.324437
  C      1.632477    1.030695    0.063043
  C      2.761386    0.244466    0.210383
  C      0.218033    0.738736    0.251894
  N     -0.733000    1.663505    0.053397
  O     -1.920250    1.057421    0.314098
  C     -1.729960   -0.222584    0.665815
  C     -0.372762   -0.492367    0.656432
  H      0.121694   -1.426095    0.881003
  H      2.800459   -0.773684    0.570942
  C      8.061468    0.314945    0.192637
  C      7.193004   -0.703329   -0.244553
  C      5.824571   -0.424099   -0.379301
  C      5.291403    0.858518   -0.078834
  C      6.210659    1.872184    0.328224
  C      7.579998    1.601319    0.473910
  O      5.783816    3.118413    0.609708
  O      5.023838   -1.412339   -0.846172
  O      9.384189    0.061759    0.333536
  H      9.577119   -0.855745    0.101614
  H      4.131587   -1.077976   -1.010441
  H      4.826646    3.199503    0.442841
  H      8.255586    2.383517    0.797539
  H     -5.801616   -3.381596    2.334483
  H      7.565885   -1.692257   -0.488871

 Multiplicity           Mult            ....    1
 Number of Electrons    NEL             ....  220
 Basis Dimension        Dim             .... 1082

ORBITAL ENERGIES
----------------

  NO   OCC          E(Eh)            E(eV)
   0   2.0000     -19.350318      -526.5489
   1   2.0000     -19.349868      -526.5367
   2   2.0000     -19.277176      -524.5586
   3   2.0000     -19.272263      -524.4249
   4   2.0000     -19.256798      -524.0041
   5   2.0000     -14.495007      -394.4292
   6   2.0000     -14.493231      -394.3809
   7   2.0000     -14.477985      -393.9660
   8   2.0000     -10.389896      -282.7235
   9   2.0000     -10.379746      -282.4472
  10   2.0000     -10.367030      -282.1012
  11   2.0000     -10.362015      -281.9648
  12   2.0000     -10.360146      -281.9139
  13   2.0000     -10.357201      -281.8338
  14   2.0000     -10.356972      -281.8275
  15   2.0000     -10.341919      -281.4179
  16   2.0000     -10.334049      -281.2038
  17   2.0000     -10.326960      -281.0109
  18   2.0000     -10.318059      -280.7687
  19   2.0000     -10.312887      -280.6279
  20   2.0000     -10.312191      -280.6090
  21   2.0000     -10.305341      -280.4226
  22   2.0000     -10.302691      -280.3505
  23   2.0000     -10.301242      -280.3110
  24   2.0000     -10.299388      -280.2606
  25   2.0000     -10.298285      -280.2306
  26   2.0000     -10.292396      -280.0703
  27   2.0000     -10.291089      -280.0348
  28   2.0000     -10.288886      -279.9748
  29   2.0000     -10.279808      -279.7278
  30   2.0000     -10.277560      -279.6666
  31   2.0000     -10.270151      -279.4650
  32   2.0000      -1.300695       -35.3937
  33   2.0000      -1.297016       -35.2936
  34   2.0000      -1.197577       -32.5877
  35   2.0000      -1.190690       -32.4003
  36   2.0000      -1.179462       -32.0948
  37   2.0000      -1.115502       -30.3544
  38   2.0000      -1.027644       -27.9636
  39   2.0000      -1.004748       -27.3406
  40   2.0000      -0.991281       -26.9741
  41   2.0000      -0.972500       -26.4631
  42   2.0000      -0.963495       -26.2180
  43   2.0000      -0.949841       -25.8465
  44   2.0000      -0.931888       -25.3580
  45   2.0000      -0.910428       -24.7740
  46   2.0000      -0.881447       -23.9854
  47   2.0000      -0.868657       -23.6373
  48   2.0000      -0.862061       -23.4579
  49   2.0000      -0.854731       -23.2584
  50   2.0000      -0.849089       -23.1049
  51   2.0000      -0.793480       -21.5917
  52   2.0000      -0.780574       -21.2405
  53   2.0000      -0.774332       -21.0706
  54   2.0000      -0.747688       -20.3456
  55   2.0000      -0.743324       -20.2269
  56   2.0000      -0.735617       -20.0172
  57   2.0000      -0.725400       -19.7391
  58   2.0000      -0.723257       -19.6808
  59   2.0000      -0.712808       -19.3965
  60   2.0000      -0.687857       -18.7176
  61   2.0000      -0.679956       -18.5025
  62   2.0000      -0.672301       -18.2942
  63   2.0000      -0.654256       -17.8032
  64   2.0000      -0.636540       -17.3211
  65   2.0000      -0.624182       -16.9849
  66   2.0000      -0.621096       -16.9009
  67   2.0000      -0.617277       -16.7970
  68   2.0000      -0.614271       -16.7152
  69   2.0000      -0.608094       -16.5471
  70   2.0000      -0.602319       -16.3899
  71   2.0000      -0.592526       -16.1234
  72   2.0000      -0.579018       -15.7559
  73   2.0000      -0.572727       -15.5847
  74   2.0000      -0.568567       -15.4715
  75   2.0000      -0.563075       -15.3221
  76   2.0000      -0.556021       -15.1301
  77   2.0000      -0.547604       -14.9010
  78   2.0000      -0.545405       -14.8412
  79   2.0000      -0.539271       -14.6743
  80   2.0000      -0.537054       -14.6140
  81   2.0000      -0.531760       -14.4699
  82   2.0000      -0.526951       -14.3391
  83   2.0000      -0.518476       -14.1085
  84   2.0000      -0.515432       -14.0256
  85   2.0000      -0.509845       -13.8736
  86   2.0000      -0.504576       -13.7302
  87   2.0000      -0.500340       -13.6149
  88   2.0000      -0.483171       -13.1478
  89   2.0000      -0.481599       -13.1050
  90   2.0000      -0.477488       -12.9931
  91   2.0000      -0.475923       -12.9505
  92   2.0000      -0.464159       -12.6304
  93   2.0000      -0.457234       -12.4420
  94   2.0000      -0.453981       -12.3535
  95   2.0000      -0.452970       -12.3259
  96   2.0000      -0.448014       -12.1911
  97   2.0000      -0.438078       -11.9207
  98   2.0000      -0.431581       -11.7439
  99   2.0000      -0.426065       -11.5938
 100   2.0000      -0.417008       -11.3474
 101   2.0000      -0.401205       -10.9173
 102   2.0000      -0.390114       -10.6155
 103   2.0000      -0.380531       -10.3548
 104   2.0000      -0.359204        -9.7744
 105   2.0000      -0.343133        -9.3371
 106   2.0000      -0.309004        -8.4084
 107   2.0000      -0.307913        -8.3787
 108   2.0000      -0.306099        -8.3294
 109   2.0000      -0.298020        -8.1095
 110   0.0000      -0.011527        -0.3137
 111   0.0000       0.004769         0.1298
 112   0.0000       0.041950         1.1415
 113   0.0000       0.046611         1.2683
 114   0.0000       0.075304         2.0491

MULLIKEN ATOMIC CHARGES
-----------------------
   0 C :   -0.171887
   1 C :   -0.126386
   2 C :   -0.040847
   3 C :    0.166869
   4 C :   -0.236441
   5 C :   -0.080346
   6 C :   -0.029114
   7 C :    0.179685
   8 N :   -0.302673
   9 C :   -0.221074
  10 C :   -0.091717
  11 C :   -0.280202
  12 C :    0.084775
  13 H :    0.122182
  14 H :    0.238567
  15 H :    0.127511
  16 H :    0.150008
  17 H :    0.117345
  18 H :    0.124818
  19 H :    0.123564
  20 C :    0.199968
  21 N :   -0.241929
  22 O :   -0.097446
  23 C :    0.228367
  24 C :   -0.411537
  25 C :    0.171769
  26 N :   -0.153586
  27 O :   -0.124910
  28 C :    0.283765
  29 C :   -0.271636
  30 H :    0.166837
  31 H :    0.200445
  32 C :    0.400227
  33 C :   -0.359385
  34 C :    0.193603
  35 C :   -0.106590
  36 C :    0.258796
  37 C :   -0.380682
  38 O :   -0.393484
  39 O :   -0.403757
  40 O :   -0.408058
  41 H :    0.332598
  42 H :    0.335901
  43 H :    0.343149
  44 H :    0.139648
  45 H :    0.123437
  46 H :    0.119856
Sum of atomic charges:   -0.0000000

LOEWDIN ATOMIC CHARGES
----------------------
   0 C :   -0.154573
   1 C :   -0.096483
   2 C :   -0.081175
   3 C :   -0.143774
   4 C :   -0.132676
   5 C :   -0.136890
   6 C :   -0.033792
   7 C :   -0.142571
   8 N :    0.202824
   9 C :   -0.118120
  10 C :   -0.139983
  11 C :   -0.108072
  12 C :   -0.083428
  13 H :    0.149712
  14 H :    0.194449
  15 H :    0.148085
  16 H :    0.151929
  17 H :    0.143660
  18 H :    0.145753
  19 H :    0.145557
  20 C :   -0.218823
  21 N :    0.014214
  22 O :    0.320807
  23 C :   -0.213411
  24 C :   -0.146439
  25 C :   -0.228752
  26 N :    0.052017
  27 O :    0.315418
  28 C :   -0.194942
  29 C :   -0.120695
  30 H :    0.149172
  31 H :    0.151859
  32 C :   -0.262563
  33 C :   -0.152109
  34 C :   -0.229461
  35 C :   -0.120989
  36 C :   -0.221053
  37 C :   -0.122029
  38 O :    0.110981
  39 O :    0.100457
  40 O :    0.094644
  41 H :    0.193439
  42 H :    0.187282
  43 H :    0.183357
  44 H :    0.155340
  45 H :    0.146264
  46 H :    0.145582

  Mayer bond orders larger than 0.1
B(  0-C ,  1-C ) :   1.5348 B(  0-C ,  5-C ) :   1.3509 B(  0-C , 19-H ) :   0.9853
B(  1-C ,  2-C ) :   1.2719 B(  1-C , 16-H ) :   0.9360 B(  2-C ,  3-C ) :   1.3665
B(  2-C ,  6-C ) :   1.0807 B(  3-C ,  4-C ) :   1.3078 B(  3-C ,  8-N ) :   1.1173
B(  4-C ,  5-C ) :   1.4875 B(  4-C , 17-H ) :   0.9734 B(  5-C , 18-H ) :   0.9808
B(  6-C ,  7-C ) :   1.3301 B(  6-C , 12-C ) :   1.2507 B(  7-C ,  8-N ) :   1.1563
B(  7-C ,  9-C ) :   1.2911 B(  8-N , 14-H ) :   0.9119 B(  9-C , 10-C ) :   1.4616
B(  9-C , 45-H ) :   0.9709 B( 10-C , 11-C ) :   1.4125 B( 10-C , 15-H ) :   0.9824
B( 11-C , 12-C ) :   1.4267 B( 11-C , 13-H ) :   0.9711 B( 12-C , 28-C ) :   0.9655
B( 20-C , 21-N ) :   1.5465 B( 20-C , 24-C ) :   1.2830 B( 20-C , 35-C ) :   0.8929
B( 21-N , 22-O ) :   0.9683 B( 21-N , 23-C ) :   0.1063 B( 22-O , 23-C ) :   1.2435
B( 23-C , 24-C ) :   1.5605 B( 23-C , 25-C ) :   0.9611 B( 24-C , 31-H ) :   0.9217
B( 25-C , 26-N ) :   1.6393 B( 25-C , 29-C ) :   1.2872 B( 26-N , 27-O ) :   0.9902
B( 26-N , 28-C ) :   0.1220 B( 27-O , 28-C ) :   1.1692 B( 28-C , 29-C ) :   1.6155
B( 29-C , 30-H ) :   0.9184 B( 32-C , 33-C ) :   1.3201 B( 32-C , 37-C ) :   1.3884
B( 32-C , 40-O ) :   1.1300 B( 33-C , 34-C ) :   1.5139 B( 33-C , 46-H ) :   0.9349
B( 34-C , 35-C ) :   1.2436 B( 34-C , 39-O ) :   1.1360 B( 35-C , 36-C ) :   1.2529
B( 36-C , 37-C ) :   1.4506 B( 36-C , 38-O ) :   1.2056 B( 37-C , 44-H ) :   0.9814
B( 38-O , 43-H ) :   0.8204 B( 39-O , 42-H ) :   0.8640 B( 40-O , 41-H ) :   0.8774

Dispersion correction           -0.021030655
FINAL SINGLE POINT ENERGY     -1464.017054284714

DIPOLE MOMENT
-------------
                                X             Y             Z
Electronic contribution:      6.29728       5.83677       0.52064
Nuclear contribution   :     -8.40656      -8.56965      -0.05963
                        -----------------------------------------
Total Dipole Moment    :     -2.10928      -2.73287       0.46101
                        -----------------------------------------
Magnitude (a.u.)       :      3.48284
Magnitude (Debye)      :      8.85268

                             ****ORCA TERMINATED NORMALLY****
TOTAL RUN TIME: 0 days 0 hours 9 minutes 56 seconds 563 msec
