                         Program Version 4.0.0 -  RELEASE  -
|  1> #
|  2> !wB97X-D3 def2-TZVP def2/J RIJCOSX Grid5 FinalGrid6 TightSCF
|  3> %pal
|  4>  nprocs 24
|  5> end
|  6> %tddft
|  7>   Mode sTDDFT
|  8>   nroots 2
|  9>   Ethresh 10.0
| 10>   maxcore 5000
| 11>   triplets true
| 12> end
| 13> * xyz 0 1
| 14> C 5.24325914 2.95594125 -0.63743666
| 15> C 4.48720370 1.79251872 -0.52145690
| 16> C 5.14781704 0.55256276 -0.42725932
| 17> C 6.57089860 0.54129748 -0.44420335
| 18> C 7.33508923 1.71172801 -0.56800280
| 19> C 6.64858050 2.91925823 -0.66545371
| 20> C 4.72447879 -0.83055431 -0.27216596
| 21> C 5.92249093 -1.60077049 -0.18476503
| 22> N 7.01444750 -0.76250327 -0.30731782
| 23> C 5.92952645 -2.98847781 0.01861729
| 24> C 4.69595169 -3.62187781 0.15468916
| 25> C 3.50253651 -2.89376504 0.07583707
| 26> C 3.47729849 -1.50440179 -0.15420556
| 27> H 2.55826987 -3.42515859 0.17081084
| 28> H 7.98344444 -1.05379224 -0.26780132
| 29> H 4.65500814 -4.69451955 0.32073891
| 30> H 3.40266851 1.84726705 -0.50827409
| 31> H 8.42110360 1.67521652 -0.58206965
| 32> H 7.20628866 3.84698201 -0.76247480
| 33> H 4.73804771 3.91497375 -0.71173466
| 34> S -2.58033605 -1.02278816 0.87884156
| 35> C -1.57612146 0.07832137 -0.07817350
| 36> N -2.25588759 1.09019532 -0.60220243
| 37> N -3.58345842 1.06866892 -0.29454430
| 38> C -3.95130182 0.04865968 0.46686359
| 39> C -0.15341922 -0.12854490 -0.25294244
| 40> N 0.63562124 0.66389644 -0.96545250
| 41> N 1.94040649 0.25911452 -0.97821903
| 42> C 2.17695527 -0.83889019 -0.27710408
| 43> S 0.70175617 -1.49552647 0.48115956
| 44> C -7.26902893 2.48726344 -0.52018301
| 45> N -6.21317819 1.73824015 -0.22744808
| 46> C -6.41560764 0.64951018 0.58064582
| 47> C -7.72703018 0.35076585 1.07555272
| 48> N -8.80388283 1.14475630 0.75621841
| 49> C -8.56927842 2.19051720 -0.02619512
| 50> C -7.92862835 -0.78286180 1.91094554
| 51> C -6.86082386 -1.59185669 2.24203538
| 52> C -5.56816159 -1.30575480 1.76085213
| 53> C -5.31222655 -0.20789163 0.93987679
| 54> H -4.74779674 -1.96314791 2.04179266
| 55> H -7.00813173 -2.45934087 2.87953477
| 56> H -9.42051705 2.83107261 -0.28730164
| 57> H -7.10860899 3.35830343 -1.16676681
| 58> H 6.86109061 -3.54416030 0.07806310
| 59> H -8.92691367 -1.00024656 2.28097927
| 60> *
| 61> $new_job
| 62> #
| 63> !wB97X-D3 def2-TZVP def2/J RIJCOSX Grid5 FinalGrid6 TightSCF
| 64> %pal
| 65>  nprocs 24
| 66> end
| 67> %elprop
| 68>    dipole     true
| 69>    quadrupole true
| 70> end
| 71> %tddft
| 72>   Mode sTDDFT
| 73>   nroots 2
| 74>   Ethresh 10.0
| 75>   maxcore 5000
| 76> end
| 77> * xyz 0 1
| 78> C 5.24325914 2.95594125 -0.63743666
| 79> C 4.48720370 1.79251872 -0.52145690
| 80> C 5.14781704 0.55256276 -0.42725932
| 81> C 6.57089860 0.54129748 -0.44420335
| 82> C 7.33508923 1.71172801 -0.56800280
| 83> C 6.64858050 2.91925823 -0.66545371
| 84> C 4.72447879 -0.83055431 -0.27216596
| 85> C 5.92249093 -1.60077049 -0.18476503
| 86> N 7.01444750 -0.76250327 -0.30731782
| 87> C 5.92952645 -2.98847781 0.01861729
| 88> C 4.69595169 -3.62187781 0.15468916
| 89> C 3.50253651 -2.89376504 0.07583707
| 90> C 3.47729849 -1.50440179 -0.15420556
| 91> H 2.55826987 -3.42515859 0.17081084
| 92> H 7.98344444 -1.05379224 -0.26780132
| 93> H 4.65500814 -4.69451955 0.32073891
| 94> H 3.40266851 1.84726705 -0.50827409
| 95> H 8.42110360 1.67521652 -0.58206965
| 96> H 7.20628866 3.84698201 -0.76247480
| 97> H 4.73804771 3.91497375 -0.71173466
| 98> S -2.58033605 -1.02278816 0.87884156
| 99> C -1.57612146 0.07832137 -0.07817350
|100> N -2.25588759 1.09019532 -0.60220243
|101> N -3.58345842 1.06866892 -0.29454430
|102> C -3.95130182 0.04865968 0.46686359
|103> C -0.15341922 -0.12854490 -0.25294244
|104> N 0.63562124 0.66389644 -0.96545250
|105> N 1.94040649 0.25911452 -0.97821903
|106> C 2.17695527 -0.83889019 -0.27710408
|107> S 0.70175617 -1.49552647 0.48115956
|108> C -7.26902893 2.48726344 -0.52018301
|109> N -6.21317819 1.73824015 -0.22744808
|110> C -6.41560764 0.64951018 0.58064582
|111> C -7.72703018 0.35076585 1.07555272
|112> N -8.80388283 1.14475630 0.75621841
|113> C -8.56927842 2.19051720 -0.02619512
|114> C -7.92862835 -0.78286180 1.91094554
|115> C -6.86082386 -1.59185669 2.24203538
|116> C -5.56816159 -1.30575480 1.76085213
|117> C -5.31222655 -0.20789163 0.93987679
|118> H -4.74779674 -1.96314791 2.04179266
|119> H -7.00813173 -2.45934087 2.87953477
|120> H -9.42051705 2.83107261 -0.28730164
|121> H -7.10860899 3.35830343 -1.16676681
|122> H 6.86109061 -3.54416030 0.07806310
|123> H -8.92691367 -1.00024656 2.28097927
|124> *
|125>
|126>                          ****END OF INPUT****
 Total Charge           Charge          ....    0
 Multiplicity           Mult            ....    1
 Number of Electrons    NEL             ....  238
Dispersion correction           -0.020357931
FINAL SINGLE POINT ENERGY     -2102.071561643798

CARTESIAN COORDINATES (ANGSTROEM)
---------------------------------
  C      5.243259    2.955941   -0.637437
  C      4.487204    1.792519   -0.521457
  C      5.147817    0.552563   -0.427259
  C      6.570899    0.541297   -0.444203
  C      7.335089    1.711728   -0.568003
  C      6.648580    2.919258   -0.665454
  C      4.724479   -0.830554   -0.272166
  C      5.922491   -1.600770   -0.184765
  N      7.014447   -0.762503   -0.307318
  C      5.929526   -2.988478    0.018617
  C      4.695952   -3.621878    0.154689
  C      3.502537   -2.893765    0.075837
  C      3.477298   -1.504402   -0.154206
  H      2.558270   -3.425159    0.170811
  H      7.983444   -1.053792   -0.267801
  H      4.655008   -4.694520    0.320739
  H      3.402669    1.847267   -0.508274
  H      8.421104    1.675217   -0.582070
  H      7.206289    3.846982   -0.762475
  H      4.738048    3.914974   -0.711735
  S     -2.580336   -1.022788    0.878842
  C     -1.576121    0.078321   -0.078174
  N     -2.255888    1.090195   -0.602202
  N     -3.583458    1.068669   -0.294544
  C     -3.951302    0.048660    0.466864
  C     -0.153419   -0.128545   -0.252942
  N      0.635621    0.663896   -0.965453
  N      1.940406    0.259115   -0.978219
  C      2.176955   -0.838890   -0.277104
  S      0.701756   -1.495526    0.481160
  C     -7.269029    2.487263   -0.520183
  N     -6.213178    1.738240   -0.227448
  C     -6.415608    0.649510    0.580646
  C     -7.727030    0.350766    1.075553
  N     -8.803883    1.144756    0.756218
  C     -8.569278    2.190517   -0.026195
  C     -7.928628   -0.782862    1.910946
  C     -6.860824   -1.591857    2.242035
  C     -5.568162   -1.305755    1.760852
  C     -5.312227   -0.207892    0.939877
  H     -4.747797   -1.963148    2.041793
  H     -7.008132   -2.459341    2.879535
  H     -9.420517    2.831073   -0.287302
  H     -7.108609    3.358303   -1.166767
  H      6.861091   -3.544160    0.078063
  H     -8.926914   -1.000247    2.280979

 Multiplicity           Mult            ....    1
 Number of Electrons    NEL             ....  238
 Basis Dimension        Dim             .... 1113

ORBITAL ENERGIES
----------------

  NO   OCC          E(Eh)            E(eV)
   0   2.0000     -89.009943     -2422.0837
   1   2.0000     -89.009648     -2422.0757
   2   2.0000     -14.471642      -393.7934
   3   2.0000     -14.470077      -393.7508
   4   2.0000     -14.467919      -393.6921
   5   2.0000     -14.465475      -393.6256
   6   2.0000     -14.462174      -393.5358
   7   2.0000     -14.454208      -393.3190
   8   2.0000     -14.446735      -393.1156
   9   2.0000     -10.379415      -282.4382
  10   2.0000     -10.379037      -282.4279
  11   2.0000     -10.377289      -282.3804
  12   2.0000     -10.377094      -282.3751
  13   2.0000     -10.348824      -281.6058
  14   2.0000     -10.344396      -281.4853
  15   2.0000     -10.341236      -281.3993
  16   2.0000     -10.339531      -281.3529
  17   2.0000     -10.336116      -281.2600
  18   2.0000     -10.333898      -281.1997
  19   2.0000     -10.326515      -280.9988
  20   2.0000     -10.322602      -280.8923
  21   2.0000     -10.320408      -280.8326
  22   2.0000     -10.312420      -280.6152
  23   2.0000     -10.310860      -280.5728
  24   2.0000     -10.306583      -280.4564
  25   2.0000     -10.300984      -280.3040
  26   2.0000     -10.297894      -280.2200
  27   2.0000     -10.296949      -280.1942
  28   2.0000     -10.289402      -279.9888
  29   2.0000     -10.284536      -279.8565
  30   2.0000     -10.283491      -279.8280
  31   2.0000     -10.277354      -279.6610
  32   2.0000     -10.270458      -279.4734
  33   2.0000      -8.106695      -220.5944
  34   2.0000      -8.106495      -220.5889
  35   2.0000      -6.059617      -164.8906
  36   2.0000      -6.059358      -164.8835
  37   2.0000      -6.055943      -164.7906
  38   2.0000      -6.055821      -164.7873
  39   2.0000      -6.053842      -164.7334
  40   2.0000      -6.053629      -164.7276
  41   2.0000      -1.155711       -31.4485
  42   2.0000      -1.146717       -31.2038
  43   2.0000      -1.108862       -30.1737
  44   2.0000      -1.106579       -30.1115
  45   2.0000      -1.034121       -28.1398
  46   2.0000      -1.001342       -27.2479
  47   2.0000      -0.993345       -27.0303
  48   2.0000      -0.976479       -26.5713
  49   2.0000      -0.963999       -26.2317
  50   2.0000      -0.946171       -25.7466
  51   2.0000      -0.941062       -25.6076
  52   2.0000      -0.915183       -24.9034
  53   2.0000      -0.902926       -24.5699
  54   2.0000      -0.895392       -24.3649
  55   2.0000      -0.884230       -24.0611
  56   2.0000      -0.875406       -23.8210
  57   2.0000      -0.847363       -23.0579
  58   2.0000      -0.842031       -22.9128
  59   2.0000      -0.799464       -21.7545
  60   2.0000      -0.787570       -21.4309
  61   2.0000      -0.777423       -21.1548
  62   2.0000      -0.768134       -20.9020
  63   2.0000      -0.754337       -20.5265
  64   2.0000      -0.730402       -19.8753
  65   2.0000      -0.725146       -19.7322
  66   2.0000      -0.713796       -19.4234
  67   2.0000      -0.698069       -18.9954
  68   2.0000      -0.688237       -18.7279
  69   2.0000      -0.663826       -18.0636
  70   2.0000      -0.659278       -17.9399
  71   2.0000      -0.654263       -17.8034
  72   2.0000      -0.640562       -17.4306
  73   2.0000      -0.626468       -17.0471
  74   2.0000      -0.617638       -16.8068
  75   2.0000      -0.609198       -16.5771
  76   2.0000      -0.599591       -16.3157
  77   2.0000      -0.583007       -15.8644
  78   2.0000      -0.578082       -15.7304
  79   2.0000      -0.570624       -15.5275
  80   2.0000      -0.564546       -15.3621
  81   2.0000      -0.559033       -15.2121
  82   2.0000      -0.558444       -15.1960
  83   2.0000      -0.555191       -15.1075
  84   2.0000      -0.549705       -14.9582
  85   2.0000      -0.543087       -14.7782
  86   2.0000      -0.540506       -14.7079
  87   2.0000      -0.538425       -14.6513
  88   2.0000      -0.532554       -14.4915
  89   2.0000      -0.528859       -14.3910
  90   2.0000      -0.524230       -14.2650
  91   2.0000      -0.521791       -14.1987
  92   2.0000      -0.516705       -14.0602
  93   2.0000      -0.492326       -13.3969
  94   2.0000      -0.480719       -13.0810
  95   2.0000      -0.477961       -13.0060
  96   2.0000      -0.475654       -12.9432
  97   2.0000      -0.471710       -12.8359
  98   2.0000      -0.469391       -12.7728
  99   2.0000      -0.451941       -12.2979
 100   2.0000      -0.446417       -12.1476
 101   2.0000      -0.443553       -12.0697
 102   2.0000      -0.435563       -11.8523
 103   2.0000      -0.424808       -11.5596
 104   2.0000      -0.419138       -11.4053
 105   2.0000      -0.406171       -11.0525
 106   2.0000      -0.404778       -11.0146
 107   2.0000      -0.401972       -10.9382
 108   2.0000      -0.395589       -10.7645
 109   2.0000      -0.384337       -10.4583
 110   2.0000      -0.377007       -10.2589
 111   2.0000      -0.368418       -10.0252
 112   2.0000      -0.361900        -9.8478
 113   2.0000      -0.358719        -9.7612
 114   2.0000      -0.342980        -9.3330
 115   2.0000      -0.337914        -9.1951
 116   2.0000      -0.318059        -8.6548
 117   2.0000      -0.300904        -8.1880
 118   2.0000      -0.290786        -7.9127
 119   0.0000      -0.045459        -1.2370
 120   0.0000      -0.018814        -0.5120
 121   0.0000       0.011690         0.3181
 122   0.0000       0.025750         0.7007
 123   0.0000       0.032388         0.8813

MULLIKEN ATOMIC CHARGES
-----------------------
   0 C :   -0.176624
   1 C :   -0.134592
   2 C :   -0.026900
   3 C :    0.167091
   4 C :   -0.232340
   5 C :   -0.078942
   6 C :   -0.032291
   7 C :    0.183739
   8 N :   -0.303950
   9 C :   -0.221391
  10 C :   -0.095527
  11 C :   -0.274130
  12 C :    0.130614
  13 H :    0.124627
  14 H :    0.236989
  15 H :    0.126806
  16 H :    0.163356
  17 H :    0.113457
  18 H :    0.122846
  19 H :    0.122442
  20 S :   -0.027102
  21 C :    0.106383
  22 N :   -0.178772
  23 N :   -0.034749
  24 C :    0.141174
  25 C :    0.116869
  26 N :   -0.122707
  27 N :   -0.180275
  28 C :    0.176552
  29 S :   -0.005117
  30 C :   -0.038780
  31 N :   -0.216347
  32 C :    0.062130
  33 C :    0.148777
  34 N :   -0.242897
  35 C :    0.008738
  36 C :   -0.212081
  37 C :   -0.102234
  38 C :   -0.158991
  39 C :    0.030941
  40 H :    0.132474
  41 H :    0.134620
  42 H :    0.140895
  43 H :    0.143535
  44 H :    0.121642
  45 H :    0.140043
Sum of atomic charges:   -0.0000000

LOEWDIN ATOMIC CHARGES
----------------------
   0 C :   -0.156129
   1 C :   -0.090201
   2 C :   -0.078182
   3 C :   -0.144371
   4 C :   -0.136402
   5 C :   -0.138047
   6 C :   -0.027549
   7 C :   -0.142957
   8 N :    0.201756
   9 C :   -0.117609
  10 C :   -0.142233
  11 C :   -0.124902
  12 C :   -0.116689
  13 H :    0.144165
  14 H :    0.193652
  15 H :    0.147623
  16 H :    0.155020
  17 H :    0.142510
  18 H :    0.144756
  19 H :    0.144995
  20 S :    0.683361
  21 C :   -0.457613
  22 N :    0.074939
  23 N :    0.073880
  24 C :   -0.377876
  25 C :   -0.458225
  26 N :    0.073084
  27 N :    0.055161
  28 C :   -0.372524
  29 S :    0.697717
  30 C :   -0.192799
  31 N :    0.196016
  32 C :   -0.123635
  33 C :   -0.166543
  34 N :    0.167952
  35 C :   -0.197208
  36 C :   -0.083718
  37 C :   -0.131564
  38 C :   -0.094741
  39 C :   -0.113110
  40 H :    0.147443
  41 H :    0.151002
  42 H :    0.143036
  43 H :    0.145256
  44 H :    0.145901
  45 H :    0.155599

  Mayer bond orders larger than 0.1
B(  0-C ,  1-C ) :   1.5414 B(  0-C ,  5-C ) :   1.3532 B(  0-C , 19-H ) :   0.9844
B(  1-C ,  2-C ) :   1.2684 B(  1-C , 16-H ) :   0.9335 B(  2-C ,  3-C ) :   1.3590
B(  2-C ,  6-C ) :   1.0896 B(  3-C ,  4-C ) :   1.3056 B(  3-C ,  8-N ) :   1.1130
B(  4-C ,  5-C ) :   1.4849 B(  4-C , 17-H ) :   0.9745 B(  5-C , 18-H ) :   0.9798
B(  6-C ,  7-C ) :   1.3213 B(  6-C , 12-C ) :   1.2471 B(  7-C ,  8-N ) :   1.1559
B(  7-C ,  9-C ) :   1.2943 B(  8-N , 14-H ) :   0.9131 B(  9-C , 10-C ) :   1.4692
B(  9-C , 44-H ) :   0.9701 B( 10-C , 11-C ) :   1.4202 B( 10-C , 15-H ) :   0.9796
B( 11-C , 12-C ) :   1.4020 B( 11-C , 13-H ) :   0.9614 B( 12-C , 28-C ) :   0.9404
B( 20-S , 21-C ) :   1.2694 B( 20-S , 24-C ) :   1.2648 B( 21-C , 22-N ) :   1.7004
B( 21-C , 25-C ) :   0.9999 B( 22-N , 23-N ) :   1.0880 B( 23-N , 24-C ) :   1.7339
B( 24-C , 39-C ) :   0.9717 B( 25-C , 26-N ) :   1.7033 B( 25-C , 29-S ) :   1.2747
B( 26-N , 27-N ) :   1.0889 B( 27-N , 28-C ) :   1.6474 B( 28-C , 29-S ) :   1.2681
B( 30-C , 31-N ) :   1.6514 B( 30-C , 35-C ) :   1.2304 B( 30-C , 43-H ) :   0.9665
B( 31-N , 32-C ) :   1.3325 B( 32-C , 33-C ) :   1.2930 B( 32-C , 39-C ) :   1.1639
B( 33-C , 34-N ) :   1.2917 B( 33-C , 36-C ) :   1.2442 B( 34-N , 35-C ) :   1.6118
B( 35-C , 42-H ) :   0.9636 B( 36-C , 37-C ) :   1.5459 B( 36-C , 45-H ) :   0.9738
B( 37-C , 38-C ) :   1.3118 B( 37-C , 41-H ) :   0.9842 B( 38-C , 39-C ) :   1.4693
B( 38-C , 40-H ) :   0.9623

Dispersion correction           -0.020357931
FINAL SINGLE POINT ENERGY     -2102.071561552254

DIPOLE MOMENT
-------------
                                X             Y             Z
Electronic contribution:    -11.60186      -2.22306      -0.33909
Nuclear contribution   :     12.14373       0.33705       1.61814
                        -----------------------------------------
Total Dipole Moment    :      0.54187      -1.88602       1.27905
                        -----------------------------------------
Magnitude (a.u.)       :      2.34236
Magnitude (Debye)      :      5.95381

                             ****ORCA TERMINATED NORMALLY****
TOTAL RUN TIME: 0 days 0 hours 9 minutes 31 seconds 921 msec
