                         Program Version 4.0.0 -  RELEASE  -
|  1> #
|  2> !wB97X-D3 def2-TZVP def2/J RIJCOSX Grid5 FinalGrid6 TightSCF
|  3> %pal
|  4>  nprocs 24
|  5> end
|  6> %tddft
|  7>   Mode sTDDFT
|  8>   nroots 2
|  9>   Ethresh 10.0
| 10>   maxcore 5000
| 11>   triplets true
| 12> end
| 13> * xyz 0 1
| 14> C -3.94274693 -3.21151795 0.48755773
| 15> C -3.82717757 -1.83100934 0.34203264
| 16> C -4.88385835 -1.00705964 0.77178862
| 17> C -6.05143048 -1.62088339 1.30634612
| 18> C -6.16655118 -3.01073760 1.46194814
| 19> C -5.09150172 -3.79518014 1.05035686
| 20> C -5.14111090 0.42371274 0.75292410
| 21> C -6.46798576 0.59432344 1.24131854
| 22> N -6.98543633 -0.64004036 1.59292397
| 23> C -7.10102478 1.84556586 1.30077581
| 24> C -6.38257180 2.94671202 0.83799750
| 25> C -5.07032211 2.80949031 0.36462124
| 26> C -4.41038216 1.56713867 0.33571112
| 27> H -4.53169817 3.69557763 0.03769940
| 28> H -7.91809297 -0.80313484 1.95191970
| 29> H -6.84082338 3.93180197 0.85355800
| 30> H -2.93652163 -1.40930455 -0.11441547
| 31> H -7.06512707 -3.45802823 1.87854990
| 32> H -5.14551345 -4.87560796 1.15408103
| 33> H -3.13013656 -3.85299606 0.15809286
| 34> N 1.68729240 1.67753745 -1.48696236
| 35> C 0.45277990 2.24093410 -1.78356205
| 36> C 0.46706211 3.16020812 -2.82092083
| 37> S 2.08075575 3.33784387 -3.46023199
| 38> C 2.64663190 2.13986271 -2.26799473
| 39> C -0.72501762 1.84774843 -1.02207699
| 40> S -2.34109381 2.51989088 -1.35396094
| 41> C -3.00052847 1.50755315 -0.06878488
| 42> C -1.97125983 0.78339432 0.50508892
| 43> N -0.71827904 0.97366666 -0.02859247
| 44> H -0.37673090 3.71395615 -3.21325961
| 45> H -2.09517351 0.11830687 1.35681714
| 46> S 10.70589568 -2.38897126 0.61676996
| 47> C 9.08644590 -1.71909420 0.30712305
| 48> C 8.05570817 -2.15310709 1.07563489
| 49> S 8.39950334 -3.36045890 2.33678914
| 50> C 10.20992269 -3.50345847 2.00304825
| 51> S 6.44335766 -1.48066537 0.76113438
| 52> C 6.98440102 -0.41899402 -0.57823704
| 53> S 8.73651596 -0.51428472 -0.94951372
| 54> C 6.13293520 0.39227309 -1.25647799
| 55> S 6.66355736 1.45520573 -2.59455102
| 56> C 5.07039522 2.13359330 -2.92180741
| 57> C 4.02567871 1.70918727 -2.16023329
| 58> S 4.38522107 0.49836388 -0.89859049
| 59> H 10.45832699 -4.54094035 1.75001352
| 60> H 10.77402811 -3.24303116 2.90640967
| 61> H -8.11484716 1.94816070 1.67705564
| 62> H 4.96612849 2.86649627 -3.71641458
| 63> *
| 64> $new_job
| 65> #
| 66> !wB97X-D3 def2-TZVP def2/J RIJCOSX Grid5 FinalGrid6 TightSCF
| 67> %pal
| 68>  nprocs 24
| 69> end
| 70> %elprop
| 71>    dipole     true
| 72>    quadrupole true
| 73> end
| 74> %tddft
| 75>   Mode sTDDFT
| 76>   nroots 2
| 77>   Ethresh 10.0
| 78>   maxcore 5000
| 79> end
| 80> * xyz 0 1
| 81> C -3.94274693 -3.21151795 0.48755773
| 82> C -3.82717757 -1.83100934 0.34203264
| 83> C -4.88385835 -1.00705964 0.77178862
| 84> C -6.05143048 -1.62088339 1.30634612
| 85> C -6.16655118 -3.01073760 1.46194814
| 86> C -5.09150172 -3.79518014 1.05035686
| 87> C -5.14111090 0.42371274 0.75292410
| 88> C -6.46798576 0.59432344 1.24131854
| 89> N -6.98543633 -0.64004036 1.59292397
| 90> C -7.10102478 1.84556586 1.30077581
| 91> C -6.38257180 2.94671202 0.83799750
| 92> C -5.07032211 2.80949031 0.36462124
| 93> C -4.41038216 1.56713867 0.33571112
| 94> H -4.53169817 3.69557763 0.03769940
| 95> H -7.91809297 -0.80313484 1.95191970
| 96> H -6.84082338 3.93180197 0.85355800
| 97> H -2.93652163 -1.40930455 -0.11441547
| 98> H -7.06512707 -3.45802823 1.87854990
| 99> H -5.14551345 -4.87560796 1.15408103
|100> H -3.13013656 -3.85299606 0.15809286
|101> N 1.68729240 1.67753745 -1.48696236
|102> C 0.45277990 2.24093410 -1.78356205
|103> C 0.46706211 3.16020812 -2.82092083
|104> S 2.08075575 3.33784387 -3.46023199
|105> C 2.64663190 2.13986271 -2.26799473
|106> C -0.72501762 1.84774843 -1.02207699
|107> S -2.34109381 2.51989088 -1.35396094
|108> C -3.00052847 1.50755315 -0.06878488
|109> C -1.97125983 0.78339432 0.50508892
|110> N -0.71827904 0.97366666 -0.02859247
|111> H -0.37673090 3.71395615 -3.21325961
|112> H -2.09517351 0.11830687 1.35681714
|113> S 10.70589568 -2.38897126 0.61676996
|114> C 9.08644590 -1.71909420 0.30712305
|115> C 8.05570817 -2.15310709 1.07563489
|116> S 8.39950334 -3.36045890 2.33678914
|117> C 10.20992269 -3.50345847 2.00304825
|118> S 6.44335766 -1.48066537 0.76113438
|119> C 6.98440102 -0.41899402 -0.57823704
|120> S 8.73651596 -0.51428472 -0.94951372
|121> C 6.13293520 0.39227309 -1.25647799
|122> S 6.66355736 1.45520573 -2.59455102
|123> C 5.07039522 2.13359330 -2.92180741
|124> C 4.02567871 1.70918727 -2.16023329
|125> S 4.38522107 0.49836388 -0.89859049
|126> H 10.45832699 -4.54094035 1.75001352
|127> H 10.77402811 -3.24303116 2.90640967
|128> H -8.11484716 1.94816070 1.67705564
|129> H 4.96612849 2.86649627 -3.71641458
|130> *
|131>
|132>                          ****END OF INPUT****
 Total Charge           Charge          ....    0
 Multiplicity           Mult            ....    1
 Number of Electrons    NEL             ....  312
Dispersion correction           -0.023144022
FINAL SINGLE POINT ENERGY     -4310.380494085886

CARTESIAN COORDINATES (ANGSTROEM)
---------------------------------
  C     -3.942747   -3.211518    0.487558
  C     -3.827178   -1.831009    0.342033
  C     -4.883858   -1.007060    0.771789
  C     -6.051430   -1.620883    1.306346
  C     -6.166551   -3.010738    1.461948
  C     -5.091502   -3.795180    1.050357
  C     -5.141111    0.423713    0.752924
  C     -6.467986    0.594323    1.241319
  N     -6.985436   -0.640040    1.592924
  C     -7.101025    1.845566    1.300776
  C     -6.382572    2.946712    0.837997
  C     -5.070322    2.809490    0.364621
  C     -4.410382    1.567139    0.335711
  H     -4.531698    3.695578    0.037699
  H     -7.918093   -0.803135    1.951920
  H     -6.840823    3.931802    0.853558
  H     -2.936522   -1.409305   -0.114415
  H     -7.065127   -3.458028    1.878550
  H     -5.145513   -4.875608    1.154081
  H     -3.130137   -3.852996    0.158093
  N      1.687292    1.677537   -1.486962
  C      0.452780    2.240934   -1.783562
  C      0.467062    3.160208   -2.820921
  S      2.080756    3.337844   -3.460232
  C      2.646632    2.139863   -2.267995
  C     -0.725018    1.847748   -1.022077
  S     -2.341094    2.519891   -1.353961
  C     -3.000528    1.507553   -0.068785
  C     -1.971260    0.783394    0.505089
  N     -0.718279    0.973667   -0.028592
  H     -0.376731    3.713956   -3.213260
  H     -2.095174    0.118307    1.356817
  S     10.705896   -2.388971    0.616770
  C      9.086446   -1.719094    0.307123
  C      8.055708   -2.153107    1.075635
  S      8.399503   -3.360459    2.336789
  C     10.209923   -3.503458    2.003048
  S      6.443358   -1.480665    0.761134
  C      6.984401   -0.418994   -0.578237
  S      8.736516   -0.514285   -0.949514
  C      6.132935    0.392273   -1.256478
  S      6.663557    1.455206   -2.594551
  C      5.070395    2.133593   -2.921807
  C      4.025679    1.709187   -2.160233
  S      4.385221    0.498364   -0.898590
  H     10.458327   -4.540940    1.750014
  H     10.774028   -3.243031    2.906410
  H     -8.114847    1.948161    1.677056
  H      4.966128    2.866496   -3.716415

 Multiplicity           Mult            ....    1
 Number of Electrons    NEL             ....  312
 Basis Dimension        Dim             .... 1242

ORBITAL ENERGIES
----------------

  NO   OCC          E(Eh)            E(eV)
   0   2.0000     -89.007341     -2422.0129
   1   2.0000     -88.994579     -2421.6656
   2   2.0000     -88.992168     -2421.6000
   3   2.0000     -88.991977     -2421.5948
   4   2.0000     -88.991247     -2421.5749
   5   2.0000     -88.986025     -2421.4328
   6   2.0000     -88.981796     -2421.3178
   7   2.0000     -88.981583     -2421.3120
   8   2.0000     -14.470396      -393.7595
   9   2.0000     -14.444821      -393.0636
  10   2.0000     -14.430623      -392.6772
  11   2.0000     -10.380822      -282.4765
  12   2.0000     -10.363850      -282.0147
  13   2.0000     -10.363165      -281.9960
  14   2.0000     -10.359822      -281.9051
  15   2.0000     -10.357637      -281.8456
  16   2.0000     -10.356646      -281.8187
  17   2.0000     -10.355913      -281.7987
  18   2.0000     -10.352185      -281.6973
  19   2.0000     -10.347209      -281.5619
  20   2.0000     -10.345706      -281.5210
  21   2.0000     -10.337579      -281.2998
  22   2.0000     -10.331885      -281.1449
  23   2.0000     -10.330917      -281.1185
  24   2.0000     -10.327751      -281.0324
  25   2.0000     -10.314967      -280.6845
  26   2.0000     -10.314619      -280.6750
  27   2.0000     -10.298502      -280.2365
  28   2.0000     -10.292891      -280.0838
  29   2.0000     -10.291943      -280.0580
  30   2.0000     -10.291783      -280.0537
  31   2.0000     -10.287956      -279.9495
  32   2.0000     -10.286078      -279.8984
  33   2.0000     -10.285682      -279.8876
  34   2.0000     -10.285215      -279.8749
  35   2.0000     -10.276283      -279.6319
  36   2.0000      -8.103630      -220.5110
  37   2.0000      -8.090763      -220.1608
  38   2.0000      -8.088567      -220.1011
  39   2.0000      -8.088066      -220.0875
  40   2.0000      -8.087084      -220.0607
  41   2.0000      -8.081934      -219.9206
  42   2.0000      -8.078212      -219.8193
  43   2.0000      -8.077994      -219.8134
  44   2.0000      -6.056872      -164.8159
  45   2.0000      -6.052764      -164.7041
  46   2.0000      -6.050717      -164.6484
  47   2.0000      -6.044896      -164.4900
  48   2.0000      -6.042399      -164.4220
  49   2.0000      -6.041603      -164.4004
  50   2.0000      -6.041423      -164.3955
  51   2.0000      -6.040503      -164.3705
  52   2.0000      -6.038230      -164.3086
  53   2.0000      -6.037791      -164.2966
  54   2.0000      -6.037241      -164.2817
  55   2.0000      -6.036278      -164.2555
  56   2.0000      -6.036222      -164.2540
  57   2.0000      -6.035750      -164.2411
  58   2.0000      -6.032904      -164.1637
  59   2.0000      -6.032808      -164.1610
  60   2.0000      -6.032609      -164.1556
  61   2.0000      -6.031904      -164.1365
  62   2.0000      -6.031847      -164.1349
  63   2.0000      -6.028552      -164.0452
  64   2.0000      -6.028323      -164.0390
  65   2.0000      -6.026933      -164.0012
  66   2.0000      -6.022463      -163.8795
  67   2.0000      -6.022239      -163.8735
  68   2.0000      -1.107166       -30.1275
  69   2.0000      -1.100227       -29.9387
  70   2.0000      -1.074915       -29.2499
  71   2.0000      -1.025750       -27.9121
  72   2.0000      -1.007445       -27.4140
  73   2.0000      -0.980760       -26.6878
  74   2.0000      -0.967218       -26.3194
  75   2.0000      -0.962726       -26.1971
  76   2.0000      -0.930701       -25.3257
  77   2.0000      -0.927240       -25.2315
  78   2.0000      -0.920612       -25.0511
  79   2.0000      -0.903704       -24.5910
  80   2.0000      -0.902593       -24.5608
  81   2.0000      -0.896513       -24.3954
  82   2.0000      -0.884326       -24.0637
  83   2.0000      -0.869666       -23.6648
  84   2.0000      -0.854366       -23.2485
  85   2.0000      -0.843913       -22.9640
  86   2.0000      -0.841617       -22.9016
  87   2.0000      -0.840564       -22.8729
  88   2.0000      -0.823261       -22.4021
  89   2.0000      -0.776169       -21.1206
  90   2.0000      -0.767019       -20.8716
  91   2.0000      -0.745722       -20.2921
  92   2.0000      -0.733773       -19.9670
  93   2.0000      -0.721443       -19.6315
  94   2.0000      -0.718638       -19.5551
  95   2.0000      -0.717406       -19.5216
  96   2.0000      -0.706066       -19.2130
  97   2.0000      -0.672603       -18.3025
  98   2.0000      -0.668401       -18.1881
  99   2.0000      -0.650642       -17.7049
 100   2.0000      -0.644380       -17.5345
 101   2.0000      -0.638039       -17.3619
 102   2.0000      -0.632588       -17.2136
 103   2.0000      -0.623188       -16.9578
 104   2.0000      -0.616175       -16.7670
 105   2.0000      -0.613224       -16.6867
 106   2.0000      -0.580594       -15.7988
 107   2.0000      -0.571327       -15.5466
 108   2.0000      -0.570181       -15.5154
 109   2.0000      -0.564466       -15.3599
 110   2.0000      -0.559703       -15.2303
 111   2.0000      -0.554120       -15.0784
 112   2.0000      -0.551094       -14.9960
 113   2.0000      -0.545075       -14.8323
 114   2.0000      -0.542851       -14.7717
 115   2.0000      -0.539968       -14.6933
 116   2.0000      -0.535263       -14.5652
 117   2.0000      -0.531783       -14.4705
 118   2.0000      -0.525982       -14.3127
 119   2.0000      -0.522825       -14.2268
 120   2.0000      -0.521398       -14.1879
 121   2.0000      -0.514844       -14.0096
 122   2.0000      -0.510352       -13.8874
 123   2.0000      -0.495293       -13.4776
 124   2.0000      -0.492424       -13.3995
 125   2.0000      -0.489564       -13.3217
 126   2.0000      -0.486004       -13.2248
 127   2.0000      -0.475991       -12.9524
 128   2.0000      -0.472966       -12.8700
 129   2.0000      -0.471195       -12.8219
 130   2.0000      -0.466281       -12.6882
 131   2.0000      -0.461976       -12.5710
 132   2.0000      -0.453905       -12.3514
 133   2.0000      -0.450715       -12.2646
 134   2.0000      -0.445396       -12.1198
 135   2.0000      -0.443066       -12.0564
 136   2.0000      -0.437326       -11.9003
 137   2.0000      -0.434666       -11.8279
 138   2.0000      -0.425818       -11.5871
 139   2.0000      -0.413121       -11.2416
 140   2.0000      -0.406682       -11.0664
 141   2.0000      -0.399474       -10.8702
 142   2.0000      -0.397862       -10.8264
 143   2.0000      -0.386491       -10.5170
 144   2.0000      -0.382765       -10.4156
 145   2.0000      -0.374049       -10.1784
 146   2.0000      -0.373321       -10.1586
 147   2.0000      -0.367455        -9.9990
 148   2.0000      -0.358144        -9.7456
 149   2.0000      -0.353997        -9.6328
 150   2.0000      -0.341009        -9.2793
 151   2.0000      -0.314012        -8.5447
 152   2.0000      -0.299230        -8.1425
 153   2.0000      -0.292775        -7.9668
 154   2.0000      -0.282252        -7.6805
 155   2.0000      -0.248008        -6.7486
 156   0.0000      -0.015487        -0.4214
 157   0.0000      -0.000364        -0.0099
 158   0.0000       0.024994         0.6801
 159   0.0000       0.030284         0.8241
 160   0.0000       0.044270         1.2046

MULLIKEN ATOMIC CHARGES
-----------------------
   0 C :   -0.155435
   1 C :   -0.223501
   2 C :   -0.033252
   3 C :    0.173010
   4 C :   -0.230381
   5 C :   -0.089953
   6 C :   -0.025700
   7 C :    0.185045
   8 N :   -0.302541
   9 C :   -0.241131
  10 C :   -0.083858
  11 C :   -0.275278
  12 C :    0.213264
  13 H :    0.128404
  14 H :    0.236933
  15 H :    0.124295
  16 H :    0.211279
  17 H :    0.115874
  18 H :    0.123053
  19 H :    0.122723
  20 N :   -0.272512
  21 C :    0.075883
  22 C :   -0.218330
  23 S :    0.057137
  24 C :    0.227750
  25 C :    0.131472
  26 S :    0.003896
  27 C :    0.057851
  28 C :   -0.233738
  29 N :   -0.234078
  30 H :    0.174426
  31 H :    0.194525
  32 S :   -0.024912
  33 C :   -0.031531
  34 C :   -0.033290
  35 S :   -0.023236
  36 C :   -0.223748
  37 S :    0.013255
  38 C :   -0.097340
  39 S :    0.003310
  40 C :    0.061363
  41 S :    0.039378
  42 C :   -0.146045
  43 C :   -0.110654
  44 S :    0.043998
  45 H :    0.152156
  46 H :    0.151828
  47 H :    0.117735
  48 H :    0.170602
Sum of atomic charges:   -0.0000000

LOEWDIN ATOMIC CHARGES
----------------------
   0 C :   -0.156355
   1 C :   -0.104369
   2 C :   -0.081641
   3 C :   -0.145041
   4 C :   -0.132502
   5 C :   -0.140685
   6 C :   -0.040808
   7 C :   -0.143380
   8 N :    0.200684
   9 C :   -0.127998
  10 C :   -0.141025
  11 C :   -0.126246
  12 C :   -0.111014
  13 H :    0.145444
  14 H :    0.193299
  15 H :    0.146803
  16 H :    0.154895
  17 H :    0.143304
  18 H :    0.145009
  19 H :    0.145018
  20 N :    0.159715
  21 C :   -0.275745
  22 C :   -0.358886
  23 S :    0.696223
  24 C :   -0.416201
  25 C :   -0.387311
  26 S :    0.714840
  27 C :   -0.317931
  28 C :   -0.227414
  29 N :    0.130207
  30 H :    0.133964
  31 H :    0.150099
  32 S :    0.529298
  33 C :   -0.662544
  34 C :   -0.661758
  35 S :    0.531535
  36 C :   -0.597374
  37 S :    0.628100
  38 C :   -0.623854
  39 S :    0.619118
  40 C :   -0.630392
  41 S :    0.633107
  42 C :   -0.376430
  43 C :   -0.403368
  44 S :    0.678873
  45 H :    0.113733
  46 H :    0.113680
  47 H :    0.144094
  48 H :    0.139230

  Mayer bond orders larger than 0.1
B(  0-C ,  1-C ) :   1.5386 B(  0-C ,  5-C ) :   1.3584 B(  0-C , 19-H ) :   0.9832
B(  1-C ,  2-C ) :   1.2775 B(  1-C , 16-H ) :   0.9200 B(  2-C ,  3-C ) :   1.3717
B(  2-C ,  6-C ) :   1.0598 B(  3-C ,  4-C ) :   1.3042 B(  3-C ,  8-N ) :   1.1209
B(  4-C ,  5-C ) :   1.4818 B(  4-C , 17-H ) :   0.9780 B(  5-C , 18-H ) :   0.9821
B(  6-C ,  7-C ) :   1.3263 B(  6-C , 12-C ) :   1.2189 B(  7-C ,  8-N ) :   1.1518
B(  7-C ,  9-C ) :   1.2850 B(  8-N , 14-H ) :   0.9123 B(  9-C , 10-C ) :   1.4680
B(  9-C , 47-H ) :   0.9761 B( 10-C , 11-C ) :   1.4041 B( 10-C , 15-H ) :   0.9838
B( 11-C , 12-C ) :   1.4274 B( 11-C , 13-H ) :   0.9621 B( 12-C , 27-C ) :   0.8246
B( 20-N , 21-C ) :   1.2672 B( 20-N , 24-C ) :   1.6322 B( 21-C , 22-C ) :   1.6492
B( 21-C , 25-C ) :   0.9992 B( 22-C , 23-S ) :   1.2701 B( 22-C , 30-H ) :   0.9287
B( 23-S , 24-C ) :   1.2546 B( 24-C , 43-C ) :   0.9413 B( 25-C , 26-S ) :   1.3062
B( 25-C , 29-N ) :   1.6312 B( 26-S , 27-C ) :   1.2448 B( 26-S , 28-C ) :   0.1077
B( 27-C , 28-C ) :   1.5900 B( 28-C , 29-N ) :   1.3087 B( 28-C , 31-H ) :   0.9710
B( 32-S , 33-C ) :   1.0907 B( 32-S , 36-C ) :   1.0255 B( 33-C , 34-C ) :   1.7671
B( 33-C , 39-S ) :   1.1059 B( 34-C , 35-S ) :   1.0910 B( 34-C , 37-S ) :   1.1127
B( 35-S , 36-C ) :   1.0266 B( 36-C , 45-H ) :   0.9502 B( 36-C , 46-H ) :   0.9504
B( 37-S , 38-C ) :   1.1566 B( 38-C , 39-S ) :   1.1630 B( 38-C , 40-C ) :   1.5372
B( 40-C , 41-S ) :   1.0942 B( 40-C , 44-S ) :   1.1379 B( 41-S , 42-C ) :   1.1761
B( 42-C , 43-C ) :   1.7172 B( 42-C , 48-H ) :   0.9298 B( 43-C , 44-S ) :   1.2126

Dispersion correction           -0.023144022
FINAL SINGLE POINT ENERGY     -4310.380493907383

DIPOLE MOMENT
-------------
                                X             Y             Z
Electronic contribution:     42.90280       7.15257     -10.03065
Nuclear contribution   :    -44.12698      -6.91222       9.92715
                        -----------------------------------------
Total Dipole Moment    :     -1.22417       0.24035      -0.10349
                        -----------------------------------------
Magnitude (a.u.)       :      1.25183
Magnitude (Debye)      :      3.18190

                             ****ORCA TERMINATED NORMALLY****
TOTAL RUN TIME: 0 days 0 hours 15 minutes 45 seconds 449 msec
