                         Program Version 4.0.0 -  RELEASE  -
|  1> #
|  2> !wB97X-D3 def2-TZVP def2/J RIJCOSX Grid5 FinalGrid6 TightSCF
|  3> %pal
|  4>  nprocs 24
|  5> end
|  6> %tddft
|  7>   Mode sTDDFT
|  8>   nroots 2
|  9>   Ethresh 10.0
| 10>   maxcore 5000
| 11>   triplets true
| 12> end
| 13> * xyz 0 1
| 14> C -4.36152610 -2.18816948 2.54486060
| 15> C -3.63249698 -1.40616320 1.65279881
| 16> C -4.28787034 -0.37855876 0.94746149
| 17> C -5.67333305 -0.16617565 1.19510361
| 18> C -6.41150242 -0.95663225 2.08924487
| 19> C -5.73459837 -1.97328816 2.75756030
| 20> C -3.88070585 0.63355072 -0.01532710
| 21> C -5.04220961 1.41979207 -0.27550805
| 22> N -6.10725265 0.91197804 0.44378590
| 23> C -5.03617046 2.53763437 -1.12311195
| 24> C -3.82518491 2.88517449 -1.71718839
| 25> C -2.66841263 2.12885874 -1.48749059
| 26> C -2.66604127 0.98983938 -0.66056660
| 27> H -1.74532955 2.41387880 -1.98505047
| 28> H -7.04578351 1.29226586 0.44765346
| 29> H -3.77444044 3.74844410 -2.37436969
| 30> H -2.57249358 -1.59378145 1.51675422
| 31> H -7.46980561 -0.77602776 2.25707507
| 32> H -6.27263637 -2.60561613 3.45861860
| 33> H -3.85970785 -2.98270302 3.08994823
| 34> C 4.30271254 -0.62388555 -0.66191833
| 35> N 3.96914886 -1.89634419 -0.39982746
| 36> O 2.61447910 -1.94126356 -0.32552209
| 37> C 2.09844264 -0.72046458 -0.53653309
| 38> C 3.12458962 0.17626355 -0.75942434
| 39> C 0.65185296 -0.55547956 -0.49754346
| 40> N -0.17680986 -1.58340633 -0.26195595
| 41> O -1.43737532 -1.07775342 -0.29337527
| 42> C -1.41110761 0.24041160 -0.53875678
| 43> C -0.09563467 0.64128680 -0.69172603
| 44> H 0.27841445 1.63563174 -0.88712146
| 45> H 3.04091552 1.23456948 -0.95986285
| 46> N 8.95981094 -1.71346597 -0.67661731
| 47> C 8.13193580 -0.66306295 -0.83974281
| 48> C 6.79189971 -1.12984762 -0.68454668
| 49> N 6.83960476 -2.44947610 -0.43155071
| 50> O 8.15382850 -2.77082036 -0.43302799
| 51> C 5.70001599 -0.20836067 -0.80992623
| 52> C 6.06378393 1.10517079 -1.08162657
| 53> N 7.35616956 1.55707387 -1.23165075
| 54> C 8.37542186 0.71743580 -1.11860158
| 55> H 5.28454904 1.86581971 -1.19101710
| 56> H -5.93955847 3.11428299 -1.30020851
| 57> H 9.39051171 1.11128382 -1.24396898
| 58> *
| 59> $new_job
| 60> #
| 61> !wB97X-D3 def2-TZVP def2/J RIJCOSX Grid5 FinalGrid6 TightSCF
| 62> %pal
| 63>  nprocs 24
| 64> end
| 65> %elprop
| 66>    dipole     true
| 67>    quadrupole true
| 68> end
| 69> %tddft
| 70>   Mode sTDDFT
| 71>   nroots 2
| 72>   Ethresh 10.0
| 73>   maxcore 5000
| 74> end
| 75> * xyz 0 1
| 76> C -4.36152610 -2.18816948 2.54486060
| 77> C -3.63249698 -1.40616320 1.65279881
| 78> C -4.28787034 -0.37855876 0.94746149
| 79> C -5.67333305 -0.16617565 1.19510361
| 80> C -6.41150242 -0.95663225 2.08924487
| 81> C -5.73459837 -1.97328816 2.75756030
| 82> C -3.88070585 0.63355072 -0.01532710
| 83> C -5.04220961 1.41979207 -0.27550805
| 84> N -6.10725265 0.91197804 0.44378590
| 85> C -5.03617046 2.53763437 -1.12311195
| 86> C -3.82518491 2.88517449 -1.71718839
| 87> C -2.66841263 2.12885874 -1.48749059
| 88> C -2.66604127 0.98983938 -0.66056660
| 89> H -1.74532955 2.41387880 -1.98505047
| 90> H -7.04578351 1.29226586 0.44765346
| 91> H -3.77444044 3.74844410 -2.37436969
| 92> H -2.57249358 -1.59378145 1.51675422
| 93> H -7.46980561 -0.77602776 2.25707507
| 94> H -6.27263637 -2.60561613 3.45861860
| 95> H -3.85970785 -2.98270302 3.08994823
| 96> C 4.30271254 -0.62388555 -0.66191833
| 97> N 3.96914886 -1.89634419 -0.39982746
| 98> O 2.61447910 -1.94126356 -0.32552209
| 99> C 2.09844264 -0.72046458 -0.53653309
|100> C 3.12458962 0.17626355 -0.75942434
|101> C 0.65185296 -0.55547956 -0.49754346
|102> N -0.17680986 -1.58340633 -0.26195595
|103> O -1.43737532 -1.07775342 -0.29337527
|104> C -1.41110761 0.24041160 -0.53875678
|105> C -0.09563467 0.64128680 -0.69172603
|106> H 0.27841445 1.63563174 -0.88712146
|107> H 3.04091552 1.23456948 -0.95986285
|108> N 8.95981094 -1.71346597 -0.67661731
|109> C 8.13193580 -0.66306295 -0.83974281
|110> C 6.79189971 -1.12984762 -0.68454668
|111> N 6.83960476 -2.44947610 -0.43155071
|112> O 8.15382850 -2.77082036 -0.43302799
|113> C 5.70001599 -0.20836067 -0.80992623
|114> C 6.06378393 1.10517079 -1.08162657
|115> N 7.35616956 1.55707387 -1.23165075
|116> C 8.37542186 0.71743580 -1.11860158
|117> H 5.28454904 1.86581971 -1.19101710
|118> H -5.93955847 3.11428299 -1.30020851
|119> H 9.39051171 1.11128382 -1.24396898
|120> *
|121>
|122>                          ****END OF INPUT****
 Total Charge           Charge          ....    0
 Multiplicity           Mult            ....    1
 Number of Electrons    NEL             ....  216
Dispersion correction           -0.018951464
FINAL SINGLE POINT ENERGY     -1437.770223987718

CARTESIAN COORDINATES (ANGSTROEM)
---------------------------------
  C     -4.361526   -2.188169    2.544861
  C     -3.632497   -1.406163    1.652799
  C     -4.287870   -0.378559    0.947461
  C     -5.673333   -0.166176    1.195104
  C     -6.411502   -0.956632    2.089245
  C     -5.734598   -1.973288    2.757560
  C     -3.880706    0.633551   -0.015327
  C     -5.042210    1.419792   -0.275508
  N     -6.107253    0.911978    0.443786
  C     -5.036170    2.537634   -1.123112
  C     -3.825185    2.885174   -1.717188
  C     -2.668413    2.128859   -1.487491
  C     -2.666041    0.989839   -0.660567
  H     -1.745330    2.413879   -1.985050
  H     -7.045784    1.292266    0.447653
  H     -3.774440    3.748444   -2.374370
  H     -2.572494   -1.593781    1.516754
  H     -7.469806   -0.776028    2.257075
  H     -6.272636   -2.605616    3.458619
  H     -3.859708   -2.982703    3.089948
  C      4.302713   -0.623886   -0.661918
  N      3.969149   -1.896344   -0.399827
  O      2.614479   -1.941264   -0.325522
  C      2.098443   -0.720465   -0.536533
  C      3.124590    0.176264   -0.759424
  C      0.651853   -0.555480   -0.497543
  N     -0.176810   -1.583406   -0.261956
  O     -1.437375   -1.077753   -0.293375
  C     -1.411108    0.240412   -0.538757
  C     -0.095635    0.641287   -0.691726
  H      0.278414    1.635632   -0.887121
  H      3.040916    1.234569   -0.959863
  N      8.959811   -1.713466   -0.676617
  C      8.131936   -0.663063   -0.839743
  C      6.791900   -1.129848   -0.684547
  N      6.839605   -2.449476   -0.431551
  O      8.153828   -2.770820   -0.433028
  C      5.700016   -0.208361   -0.809926
  C      6.063784    1.105171   -1.081627
  N      7.356170    1.557074   -1.231651
  C      8.375422    0.717436   -1.118602
  H      5.284549    1.865820   -1.191017
  H     -5.939558    3.114283   -1.300209
  H      9.390512    1.111284   -1.243969

 Multiplicity           Mult            ....    1
 Number of Electrons    NEL             ....  216
 Basis Dimension        Dim             .... 1064

ORBITAL ENERGIES
----------------

  NO   OCC          E(Eh)            E(eV)
   0   2.0000     -19.394515      -527.7516
   1   2.0000     -19.346393      -526.4421
   2   2.0000     -19.345871      -526.4279
   3   2.0000     -14.522782      -395.1850
   4   2.0000     -14.514481      -394.9591
   5   2.0000     -14.491746      -394.3405
   6   2.0000     -14.490541      -394.3077
   7   2.0000     -14.476462      -393.9246
   8   2.0000     -14.463844      -393.5812
   9   2.0000     -10.382310      -282.5170
  10   2.0000     -10.376517      -282.3594
  11   2.0000     -10.369192      -282.1601
  12   2.0000     -10.359204      -281.8883
  13   2.0000     -10.356662      -281.8191
  14   2.0000     -10.356031      -281.8019
  15   2.0000     -10.353313      -281.7280
  16   2.0000     -10.352490      -281.7056
  17   2.0000     -10.348830      -281.6060
  18   2.0000     -10.340355      -281.3754
  19   2.0000     -10.332524      -281.1623
  20   2.0000     -10.325128      -280.9610
  21   2.0000     -10.315972      -280.7119
  22   2.0000     -10.310442      -280.5614
  23   2.0000     -10.309498      -280.5357
  24   2.0000     -10.303773      -280.3799
  25   2.0000     -10.301270      -280.3118
  26   2.0000     -10.299508      -280.2639
  27   2.0000     -10.296651      -280.1861
  28   2.0000     -10.290924      -280.0303
  29   2.0000     -10.289582      -279.9938
  30   2.0000     -10.287156      -279.9277
  31   2.0000     -10.278192      -279.6838
  32   2.0000      -1.339353       -36.4456
  33   2.0000      -1.296654       -35.2838
  34   2.0000      -1.293021       -35.1849
  35   2.0000      -1.113980       -30.3129
  36   2.0000      -1.096034       -29.8246
  37   2.0000      -1.048318       -28.5262
  38   2.0000      -1.024425       -27.8760
  39   2.0000      -1.011038       -27.5118
  40   2.0000      -0.997639       -27.1471
  41   2.0000      -0.988819       -26.9071
  42   2.0000      -0.970793       -26.4166
  43   2.0000      -0.947499       -25.7827
  44   2.0000      -0.933036       -25.3892
  45   2.0000      -0.917536       -24.9674
  46   2.0000      -0.908736       -24.7280
  47   2.0000      -0.879189       -23.9240
  48   2.0000      -0.853102       -23.2141
  49   2.0000      -0.847497       -23.0616
  50   2.0000      -0.840149       -22.8616
  51   2.0000      -0.798637       -21.7320
  52   2.0000      -0.783285       -21.3143
  53   2.0000      -0.776204       -21.1216
  54   2.0000      -0.772696       -21.0261
  55   2.0000      -0.742560       -20.2061
  56   2.0000      -0.736069       -20.0295
  57   2.0000      -0.722618       -19.6634
  58   2.0000      -0.720801       -19.6140
  59   2.0000      -0.709324       -19.3017
  60   2.0000      -0.683685       -18.6040
  61   2.0000      -0.670403       -18.2426
  62   2.0000      -0.668740       -18.1973
  63   2.0000      -0.653441       -17.7810
  64   2.0000      -0.634955       -17.2780
  65   2.0000      -0.634449       -17.2642
  66   2.0000      -0.622479       -16.9385
  67   2.0000      -0.617958       -16.8155
  68   2.0000      -0.616016       -16.7627
  69   2.0000      -0.610318       -16.6076
  70   2.0000      -0.600539       -16.3415
  71   2.0000      -0.598725       -16.2921
  72   2.0000      -0.583335       -15.8733
  73   2.0000      -0.570898       -15.5349
  74   2.0000      -0.567016       -15.4293
  75   2.0000      -0.564440       -15.3592
  76   2.0000      -0.555551       -15.1173
  77   2.0000      -0.554413       -15.0863
  78   2.0000      -0.541138       -14.7251
  79   2.0000      -0.537345       -14.6219
  80   2.0000      -0.535783       -14.5794
  81   2.0000      -0.534792       -14.5524
  82   2.0000      -0.529953       -14.4208
  83   2.0000      -0.515629       -14.0310
  84   2.0000      -0.508860       -13.8468
  85   2.0000      -0.505207       -13.7474
  86   2.0000      -0.480104       -13.0643
  87   2.0000      -0.475790       -12.9469
  88   2.0000      -0.474301       -12.9064
  89   2.0000      -0.470321       -12.7981
  90   2.0000      -0.452976       -12.3261
  91   2.0000      -0.452048       -12.3009
  92   2.0000      -0.450054       -12.2466
  93   2.0000      -0.444423       -12.0934
  94   2.0000      -0.436239       -11.8707
  95   2.0000      -0.434894       -11.8341
  96   2.0000      -0.420476       -11.4417
  97   2.0000      -0.418031       -11.3752
  98   2.0000      -0.414968       -11.2919
  99   2.0000      -0.409037       -11.1305
 100   2.0000      -0.399008       -10.8576
 101   2.0000      -0.392249       -10.6736
 102   2.0000      -0.378459       -10.2984
 103   2.0000      -0.355099        -9.6627
 104   2.0000      -0.343388        -9.3441
 105   2.0000      -0.338662        -9.2154
 106   2.0000      -0.307322        -8.3627
 107   2.0000      -0.296333        -8.0636
 108   0.0000      -0.051563        -1.4031
 109   0.0000      -0.007088        -0.1929
 110   0.0000       0.013090         0.3562
 111   0.0000       0.038199         1.0394
 112   0.0000       0.043882         1.1941

MULLIKEN ATOMIC CHARGES
-----------------------
   0 C :   -0.173517
   1 C :   -0.132779
   2 C :   -0.044778
   3 C :    0.160077
   4 C :   -0.232267
   5 C :   -0.077629
   6 C :   -0.018317
   7 C :    0.177375
   8 N :   -0.302852
   9 C :   -0.224538
  10 C :   -0.091368
  11 C :   -0.281600
  12 C :    0.059194
  13 H :    0.119716
  14 H :    0.238253
  15 H :    0.125965
  16 H :    0.150760
  17 H :    0.115968
  18 H :    0.125017
  19 H :    0.123621
  20 C :    0.263649
  21 N :   -0.125826
  22 O :   -0.092065
  23 C :    0.204831
  24 C :   -0.299260
  25 C :    0.138251
  26 N :   -0.157366
  27 O :   -0.126485
  28 C :    0.308766
  29 C :   -0.261684
  30 H :    0.163035
  31 H :    0.162740
  32 N :   -0.071270
  33 C :   -0.006727
  34 C :    0.012720
  35 N :   -0.055450
  36 O :    0.015862
  37 C :   -0.044184
  38 C :   -0.033815
  39 N :   -0.259376
  40 C :    0.022816
  41 H :    0.136967
  42 H :    0.121929
  43 H :    0.165638
Sum of atomic charges:   -0.0000000

LOEWDIN ATOMIC CHARGES
----------------------
   0 C :   -0.154690
   1 C :   -0.095956
   2 C :   -0.080996
   3 C :   -0.144065
   4 C :   -0.133092
   5 C :   -0.137270
   6 C :   -0.033829
   7 C :   -0.142699
   8 N :    0.202517
   9 C :   -0.119102
  10 C :   -0.140679
  11 C :   -0.108742
  12 C :   -0.082951
  13 H :    0.149367
  14 H :    0.194266
  15 H :    0.147739
  16 H :    0.152260
  17 H :    0.143468
  18 H :    0.145597
  19 H :    0.145591
  20 C :   -0.214098
  21 N :    0.068787
  22 O :    0.323142
  23 C :   -0.214232
  24 C :   -0.117774
  25 C :   -0.228854
  26 N :    0.050432
  27 O :    0.313783
  28 C :   -0.196268
  29 C :   -0.121659
  30 H :    0.148295
  31 H :    0.147062
  32 N :    0.052599
  33 C :   -0.238969
  34 C :   -0.189696
  35 N :    0.065902
  36 O :    0.236302
  37 C :   -0.089736
  38 C :   -0.140425
  39 N :    0.129611
  40 C :   -0.135694
  41 H :    0.147450
  42 H :    0.146003
  43 H :    0.151303

  Mayer bond orders larger than 0.1
B(  0-C ,  1-C ) :   1.5359 B(  0-C ,  5-C ) :   1.3514 B(  0-C , 19-H ) :   0.9853
B(  1-C ,  2-C ) :   1.2720 B(  1-C , 16-H ) :   0.9363 B(  2-C ,  3-C ) :   1.3695
B(  2-C ,  6-C ) :   1.0847 B(  3-C ,  4-C ) :   1.3078 B(  3-C ,  8-N ) :   1.1161
B(  4-C ,  5-C ) :   1.4858 B(  4-C , 17-H ) :   0.9745 B(  5-C , 18-H ) :   0.9802
B(  6-C ,  7-C ) :   1.3290 B(  6-C , 12-C ) :   1.2570 B(  7-C ,  8-N ) :   1.1581
B(  7-C ,  9-C ) :   1.2902 B(  8-N , 14-H ) :   0.9118 B(  9-C , 10-C ) :   1.4611
B(  9-C , 42-H ) :   0.9729 B( 10-C , 11-C ) :   1.4092 B( 10-C , 15-H ) :   0.9837
B( 11-C , 12-C ) :   1.4416 B( 11-C , 13-H ) :   0.9724 B( 12-C , 28-C ) :   0.9442
B( 20-C , 21-N ) :   1.6512 B( 20-C , 24-C ) :   1.2513 B( 20-C , 37-C ) :   0.9514
B( 21-N , 22-O ) :   0.9877 B( 21-N , 23-C ) :   0.1139 B( 22-O , 23-C ) :   1.2252
B( 23-C , 24-C ) :   1.6521 B( 23-C , 25-C ) :   0.9909 B( 24-C , 31-H ) :   0.9017
B( 25-C , 26-N ) :   1.6522 B( 25-C , 29-C ) :   1.2802 B( 26-N , 27-O ) :   0.9880
B( 26-N , 28-C ) :   0.1258 B( 27-O , 28-C ) :   1.1738 B( 28-C , 29-C ) :   1.6042
B( 29-C , 30-H ) :   0.9223 B( 32-N , 33-C ) :   1.5907 B( 32-N , 35-N ) :   0.2020
B( 32-N , 36-O ) :   1.0836 B( 33-C , 34-C ) :   1.2274 B( 33-C , 40-C ) :   1.1099
B( 34-C , 35-N ) :   1.5627 B( 34-C , 37-C ) :   1.1615 B( 35-N , 36-O ) :   1.0291
B( 37-C , 38-C ) :   1.5655 B( 38-C , 39-N ) :   1.2938 B( 38-C , 41-H ) :   0.9842
B( 39-N , 40-C ) :   1.6953 B( 40-C , 43-H ) :   0.9703

Dispersion correction           -0.018951464
FINAL SINGLE POINT ENERGY     -1437.770223974801

DIPOLE MOMENT
-------------
                                X             Y             Z
Electronic contribution:     25.43198      -8.51844      -3.19637
Nuclear contribution   :    -27.41599      11.23153       2.89389
                        -----------------------------------------
Total Dipole Moment    :     -1.98401       2.71309      -0.30248
                        -----------------------------------------
Magnitude (a.u.)       :      3.37471
Magnitude (Debye)      :      8.57782

                             ****ORCA TERMINATED NORMALLY****
TOTAL RUN TIME: 0 days 0 hours 10 minutes 2 seconds 972 msec
