                         Program Version 4.0.0 -  RELEASE  -
|  1> #
|  2> !wB97X-D3 def2-TZVP def2/J RIJCOSX Grid5 FinalGrid6 TightSCF
|  3> %pal
|  4>  nprocs 24
|  5> end
|  6> %tddft
|  7>   Mode sTDDFT
|  8>   nroots 2
|  9>   Ethresh 10.0
| 10>   maxcore 5000
| 11>   triplets true
| 12> end
| 13> * xyz 0 1
| 14> C 9.27162745 -0.90085722 -3.35062196
| 15> C 8.45502074 -0.67462297 -2.24547248
| 16> C 9.03130339 -0.19130381 -1.05537427
| 17> C 10.43253850 0.05689347 -1.03446036
| 18> C 11.25880631 -0.17681265 -2.14426219
| 19> C 10.65605334 -0.66070379 -3.30277013
| 20> C 8.52445926 0.18196900 0.25658116
| 21> C 9.65142754 0.65391627 0.99308608
| 22> N 10.78495412 0.55439710 0.20807617
| 23> C 9.55986915 1.15320483 2.30069345
| 24> C 8.29403990 1.19473909 2.88167318
| 25> C 7.16817273 0.74054278 2.18387283
| 26> C 7.24648179 0.21246851 0.88049062
| 27> H 6.19891334 0.77508073 2.67620350
| 28> H 11.71696632 0.83460131 0.48749542
| 29> H 8.17538232 1.58080662 3.89017395
| 30> H 7.38915192 -0.87421098 -2.30553462
| 31> H 12.32717443 0.01771763 -2.10086046
| 32> H 11.26367052 -0.85371977 -4.18302758
| 33> H 8.83175067 -1.27496966 -4.27104809
| 34> S 1.13141870 -0.01119789 0.18284351
| 35> C -0.09722916 -0.86408005 -0.77667090
| 36> N 0.43201347 -1.75304809 -1.61426228
| 37> N 1.79372850 -1.81747766 -1.57097108
| 38> C 2.33204184 -0.97766050 -0.69492816
| 39> C 3.75385449 -0.84441868 -0.45812041
| 40> N 4.69224181 -1.55252080 -1.07105534
| 41> N 5.96084070 -1.23781195 -0.66600991
| 42> C 6.01960142 -0.28719051 0.25187969
| 43> S 4.40377009 0.31072615 0.72139732
| 44> C -4.08080303 1.67239453 0.95369649
| 45> C -5.45227631 1.91856834 0.87461662
| 46> C -6.28238059 1.16092217 0.03099196
| 47> C -5.74682232 0.15439199 -0.77113033
| 48> C -4.33918234 -0.11404612 -0.73836988
| 49> C -3.49186801 0.63721785 0.14309245
| 50> C -3.75792865 -1.11252935 -1.59468192
| 51> C -2.38759028 -1.32207112 -1.58997064
| 52> C -1.53020960 -0.59913265 -0.71432030
| 53> C -2.08912892 0.32725485 0.18560470
| 54> N -1.21181507 1.00237603 1.06608059
| 55> C -1.15664251 0.75854008 2.33555791
| 56> C -0.16894479 1.51109103 3.18810332
| 57> N -4.59988939 -1.95929439 -2.35120974
| 58> C -4.50348945 -2.09779618 -3.63294114
| 59> C -3.56820161 -1.30039889 -4.51931509
| 60> N -6.56146010 -0.49181880 -1.72636878
| 61> C -7.60747394 -1.18663278 -1.42320002
| 62> C -8.44677893 -1.77164931 -2.53168335
| 63> N -3.26467097 2.56963386 1.67777339
| 64> C -3.49124906 2.92624152 2.89987715
| 65> C -2.63590809 4.00501978 3.51835061
| 66> C -4.54755126 2.31865887 3.80668281
| 67> C -2.01129588 -0.27372225 3.03896670
| 68> C -5.40170313 -3.08873377 -4.33059298
| 69> C -8.04874131 -1.50526353 -0.00757932
| 70> H -5.87830608 2.73913234 1.44466861
| 71> H -1.95212611 -2.07508939 -2.23953495
| 72> H -2.51348425 -0.92147283 2.32537694
| 73> H -2.77067256 0.21929078 3.64671727
| 74> H -1.40564032 -0.88257609 3.70808970
| 75> H 0.63601188 0.84711334 3.50648407
| 76> H -0.64514136 1.89275385 4.09037872
| 77> H 0.26890105 2.34078528 2.64136268
| 78> H -5.38452756 3.00537907 3.93530349
| 79> H -4.13310138 2.13042320 4.79630418
| 80> H -4.93358387 1.38691873 3.40153654
| 81> H -2.17096869 3.65432723 4.44004681
| 82> H -1.85712707 4.32701510 2.83373429
| 83> H -3.24537351 4.87046560 3.78072711
| 84> H -8.42551284 -2.86125407 -2.49214352
| 85> H -9.48908540 -1.46930596 -2.43037659
| 86> H -8.08389023 -1.45621337 -3.50558608
| 87> H -8.32519225 -2.55487092 0.07848353
| 88> H -8.92724299 -0.91729224 0.26027463
| 89> H -7.26209716 -1.28668116 0.70965694
| 90> H -6.07017205 -2.57650918 -5.02351770
| 91> H -4.81571870 -3.79593825 -4.91739987
| 92> H -6.00495579 -3.64221141 -3.61665662
| 93> H -3.19987874 -0.41422213 -4.00952314
| 94> H -4.07479593 -0.99923568 -5.43476405
| 95> H -2.70896195 -1.90573433 -4.80950178
| 96> H 10.43976983 1.50312563 2.83317450
| 97> H -7.34276603 1.38849861 -0.02876360
| 98> *
| 99> $new_job
|100> #
|101> !wB97X-D3 def2-TZVP def2/J RIJCOSX Grid5 FinalGrid6 TightSCF
|102> %pal
|103>  nprocs 24
|104> end
|105> %elprop
|106>    dipole     true
|107>    quadrupole true
|108> end
|109> %tddft
|110>   Mode sTDDFT
|111>   nroots 2
|112>   Ethresh 10.0
|113>   maxcore 5000
|114> end
|115> * xyz 0 1
|116> C 9.27162745 -0.90085722 -3.35062196
|117> C 8.45502074 -0.67462297 -2.24547248
|118> C 9.03130339 -0.19130381 -1.05537427
|119> C 10.43253850 0.05689347 -1.03446036
|120> C 11.25880631 -0.17681265 -2.14426219
|121> C 10.65605334 -0.66070379 -3.30277013
|122> C 8.52445926 0.18196900 0.25658116
|123> C 9.65142754 0.65391627 0.99308608
|124> N 10.78495412 0.55439710 0.20807617
|125> C 9.55986915 1.15320483 2.30069345
|126> C 8.29403990 1.19473909 2.88167318
|127> C 7.16817273 0.74054278 2.18387283
|128> C 7.24648179 0.21246851 0.88049062
|129> H 6.19891334 0.77508073 2.67620350
|130> H 11.71696632 0.83460131 0.48749542
|131> H 8.17538232 1.58080662 3.89017395
|132> H 7.38915192 -0.87421098 -2.30553462
|133> H 12.32717443 0.01771763 -2.10086046
|134> H 11.26367052 -0.85371977 -4.18302758
|135> H 8.83175067 -1.27496966 -4.27104809
|136> S 1.13141870 -0.01119789 0.18284351
|137> C -0.09722916 -0.86408005 -0.77667090
|138> N 0.43201347 -1.75304809 -1.61426228
|139> N 1.79372850 -1.81747766 -1.57097108
|140> C 2.33204184 -0.97766050 -0.69492816
|141> C 3.75385449 -0.84441868 -0.45812041
|142> N 4.69224181 -1.55252080 -1.07105534
|143> N 5.96084070 -1.23781195 -0.66600991
|144> C 6.01960142 -0.28719051 0.25187969
|145> S 4.40377009 0.31072615 0.72139732
|146> C -4.08080303 1.67239453 0.95369649
|147> C -5.45227631 1.91856834 0.87461662
|148> C -6.28238059 1.16092217 0.03099196
|149> C -5.74682232 0.15439199 -0.77113033
|150> C -4.33918234 -0.11404612 -0.73836988
|151> C -3.49186801 0.63721785 0.14309245
|152> C -3.75792865 -1.11252935 -1.59468192
|153> C -2.38759028 -1.32207112 -1.58997064
|154> C -1.53020960 -0.59913265 -0.71432030
|155> C -2.08912892 0.32725485 0.18560470
|156> N -1.21181507 1.00237603 1.06608059
|157> C -1.15664251 0.75854008 2.33555791
|158> C -0.16894479 1.51109103 3.18810332
|159> N -4.59988939 -1.95929439 -2.35120974
|160> C -4.50348945 -2.09779618 -3.63294114
|161> C -3.56820161 -1.30039889 -4.51931509
|162> N -6.56146010 -0.49181880 -1.72636878
|163> C -7.60747394 -1.18663278 -1.42320002
|164> C -8.44677893 -1.77164931 -2.53168335
|165> N -3.26467097 2.56963386 1.67777339
|166> C -3.49124906 2.92624152 2.89987715
|167> C -2.63590809 4.00501978 3.51835061
|168> C -4.54755126 2.31865887 3.80668281
|169> C -2.01129588 -0.27372225 3.03896670
|170> C -5.40170313 -3.08873377 -4.33059298
|171> C -8.04874131 -1.50526353 -0.00757932
|172> H -5.87830608 2.73913234 1.44466861
|173> H -1.95212611 -2.07508939 -2.23953495
|174> H -2.51348425 -0.92147283 2.32537694
|175> H -2.77067256 0.21929078 3.64671727
|176> H -1.40564032 -0.88257609 3.70808970
|177> H 0.63601188 0.84711334 3.50648407
|178> H -0.64514136 1.89275385 4.09037872
|179> H 0.26890105 2.34078528 2.64136268
|180> H -5.38452756 3.00537907 3.93530349
|181> H -4.13310138 2.13042320 4.79630418
|182> H -4.93358387 1.38691873 3.40153654
|183> H -2.17096869 3.65432723 4.44004681
|184> H -1.85712707 4.32701510 2.83373429
|185> H -3.24537351 4.87046560 3.78072711
|186> H -8.42551284 -2.86125407 -2.49214352
|187> H -9.48908540 -1.46930596 -2.43037659
|188> H -8.08389023 -1.45621337 -3.50558608
|189> H -8.32519225 -2.55487092 0.07848353
|190> H -8.92724299 -0.91729224 0.26027463
|191> H -7.26209716 -1.28668116 0.70965694
|192> H -6.07017205 -2.57650918 -5.02351770
|193> H -4.81571870 -3.79593825 -4.91739987
|194> H -6.00495579 -3.64221141 -3.61665662
|195> H -3.19987874 -0.41422213 -4.00952314
|196> H -4.07479593 -0.99923568 -5.43476405
|197> H -2.70896195 -1.90573433 -4.80950178
|198> H 10.43976983 1.50312563 2.83317450
|199> H -7.34276603 1.38849861 -0.02876360
|200> *
|201>
|202>                          ****END OF INPUT****
 Total Charge           Charge          ....    0
 Multiplicity           Mult            ....    1
 Number of Electrons    NEL             ....  358
Dispersion correction           -0.048790922
FINAL SINGLE POINT ENERGY     -2758.367030879623

CARTESIAN COORDINATES (ANGSTROEM)
---------------------------------
  C      9.271627   -0.900857   -3.350622
  C      8.455021   -0.674623   -2.245472
  C      9.031303   -0.191304   -1.055374
  C     10.432538    0.056893   -1.034460
  C     11.258806   -0.176813   -2.144262
  C     10.656053   -0.660704   -3.302770
  C      8.524459    0.181969    0.256581
  C      9.651428    0.653916    0.993086
  N     10.784954    0.554397    0.208076
  C      9.559869    1.153205    2.300693
  C      8.294040    1.194739    2.881673
  C      7.168173    0.740543    2.183873
  C      7.246482    0.212469    0.880491
  H      6.198913    0.775081    2.676204
  H     11.716966    0.834601    0.487495
  H      8.175382    1.580807    3.890174
  H      7.389152   -0.874211   -2.305535
  H     12.327174    0.017718   -2.100860
  H     11.263671   -0.853720   -4.183028
  H      8.831751   -1.274970   -4.271048
  S      1.131419   -0.011198    0.182844
  C     -0.097229   -0.864080   -0.776671
  N      0.432013   -1.753048   -1.614262
  N      1.793728   -1.817478   -1.570971
  C      2.332042   -0.977660   -0.694928
  C      3.753854   -0.844419   -0.458120
  N      4.692242   -1.552521   -1.071055
  N      5.960841   -1.237812   -0.666010
  C      6.019601   -0.287191    0.251880
  S      4.403770    0.310726    0.721397
  C     -4.080803    1.672395    0.953696
  C     -5.452276    1.918568    0.874617
  C     -6.282381    1.160922    0.030992
  C     -5.746822    0.154392   -0.771130
  C     -4.339182   -0.114046   -0.738370
  C     -3.491868    0.637218    0.143092
  C     -3.757929   -1.112529   -1.594682
  C     -2.387590   -1.322071   -1.589971
  C     -1.530210   -0.599133   -0.714320
  C     -2.089129    0.327255    0.185605
  N     -1.211815    1.002376    1.066081
  C     -1.156643    0.758540    2.335558
  C     -0.168945    1.511091    3.188103
  N     -4.599889   -1.959294   -2.351210
  C     -4.503489   -2.097796   -3.632941
  C     -3.568202   -1.300399   -4.519315
  N     -6.561460   -0.491819   -1.726369
  C     -7.607474   -1.186633   -1.423200
  C     -8.446779   -1.771649   -2.531683
  N     -3.264671    2.569634    1.677773
  C     -3.491249    2.926242    2.899877
  C     -2.635908    4.005020    3.518351
  C     -4.547551    2.318659    3.806683
  C     -2.011296   -0.273722    3.038967
  C     -5.401703   -3.088734   -4.330593
  C     -8.048741   -1.505264   -0.007579
  H     -5.878306    2.739132    1.444669
  H     -1.952126   -2.075089   -2.239535
  H     -2.513484   -0.921473    2.325377
  H     -2.770673    0.219291    3.646717
  H     -1.405640   -0.882576    3.708090
  H      0.636012    0.847113    3.506484
  H     -0.645141    1.892754    4.090379
  H      0.268901    2.340785    2.641363
  H     -5.384528    3.005379    3.935303
  H     -4.133101    2.130423    4.796304
  H     -4.933584    1.386919    3.401537
  H     -2.170969    3.654327    4.440047
  H     -1.857127    4.327015    2.833734
  H     -3.245374    4.870466    3.780727
  H     -8.425513   -2.861254   -2.492144
  H     -9.489085   -1.469306   -2.430377
  H     -8.083890   -1.456213   -3.505586
  H     -8.325192   -2.554871    0.078484
  H     -8.927243   -0.917292    0.260275
  H     -7.262097   -1.286681    0.709657
  H     -6.070172   -2.576509   -5.023518
  H     -4.815719   -3.795938   -4.917400
  H     -6.004956   -3.642211   -3.616657
  H     -3.199879   -0.414222   -4.009523
  H     -4.074796   -0.999236   -5.434764
  H     -2.708962   -1.905734   -4.809502
  H     10.439770    1.503126    2.833175
  H     -7.342766    1.388499   -0.028764

 Multiplicity           Mult            ....    1
 Number of Electrons    NEL             ....  358
 Basis Dimension        Dim             .... 1741

ORBITAL ENERGIES
----------------

  NO   OCC          E(Eh)            E(eV)
   0   2.0000     -88.999640     -2421.8033
   1   2.0000     -88.993732     -2421.6426
   2   2.0000     -14.466813      -393.6620
   3   2.0000     -14.458433      -393.4340
   4   2.0000     -14.456647      -393.3854
   5   2.0000     -14.453888      -393.3103
   6   2.0000     -14.448231      -393.1564
   7   2.0000     -14.427076      -392.5807
   8   2.0000     -14.423265      -392.4770
   9   2.0000     -14.413826      -392.2201
  10   2.0000     -14.408741      -392.0818
  11   2.0000     -10.368656      -282.1455
  12   2.0000     -10.367558      -282.1156
  13   2.0000     -10.360404      -281.9209
  14   2.0000     -10.356410      -281.8123
  15   2.0000     -10.352227      -281.6984
  16   2.0000     -10.345907      -281.5264
  17   2.0000     -10.335929      -281.2549
  18   2.0000     -10.331195      -281.1261
  19   2.0000     -10.331070      -281.1227
  20   2.0000     -10.330604      -281.1100
  21   2.0000     -10.322523      -280.8901
  22   2.0000     -10.321694      -280.8676
  23   2.0000     -10.319231      -280.8006
  24   2.0000     -10.316750      -280.7330
  25   2.0000     -10.315184      -280.6904
  26   2.0000     -10.305462      -280.4259
  27   2.0000     -10.303863      -280.3824
  28   2.0000     -10.300956      -280.3033
  29   2.0000     -10.300929      -280.3025
  30   2.0000     -10.295719      -280.1607
  31   2.0000     -10.292936      -280.0850
  32   2.0000     -10.291091      -280.0348
  33   2.0000     -10.289430      -279.9896
  34   2.0000     -10.287264      -279.9307
  35   2.0000     -10.285917      -279.8940
  36   2.0000     -10.285449      -279.8813
  37   2.0000     -10.284397      -279.8527
  38   2.0000     -10.283824      -279.8371
  39   2.0000     -10.283486      -279.8279
  40   2.0000     -10.280051      -279.7344
  41   2.0000     -10.279008      -279.7060
  42   2.0000     -10.278562      -279.6939
  43   2.0000     -10.278114      -279.6817
  44   2.0000     -10.275178      -279.6018
  45   2.0000     -10.272188      -279.5204
  46   2.0000     -10.270672      -279.4792
  47   2.0000     -10.268883      -279.4305
  48   2.0000     -10.265780      -279.3461
  49   2.0000      -8.096415      -220.3147
  50   2.0000      -8.089562      -220.1282
  51   2.0000      -6.049318      -164.6103
  52   2.0000      -6.045723      -164.5125
  53   2.0000      -6.043531      -164.4528
  54   2.0000      -6.042665      -164.4293
  55   2.0000      -6.038691      -164.3211
  56   2.0000      -6.036754      -164.2684
  57   2.0000      -1.143335       -31.1117
  58   2.0000      -1.132306       -30.8116
  59   2.0000      -1.103950       -30.0400
  60   2.0000      -1.069531       -29.1034
  61   2.0000      -1.053331       -28.6626
  62   2.0000      -1.047755       -28.5109
  63   2.0000      -1.033873       -28.1331
  64   2.0000      -0.987365       -26.8676
  65   2.0000      -0.981396       -26.7051
  66   2.0000      -0.967635       -26.3307
  67   2.0000      -0.959129       -26.0992
  68   2.0000      -0.949161       -25.8280
  69   2.0000      -0.932440       -25.3730
  70   2.0000      -0.919406       -25.0183
  71   2.0000      -0.913734       -24.8640
  72   2.0000      -0.902067       -24.5465
  73   2.0000      -0.896558       -24.3966
  74   2.0000      -0.892376       -24.2828
  75   2.0000      -0.879005       -23.9189
  76   2.0000      -0.870903       -23.6985
  77   2.0000      -0.869432       -23.6585
  78   2.0000      -0.860981       -23.4285
  79   2.0000      -0.842010       -22.9123
  80   2.0000      -0.840380       -22.8679
  81   2.0000      -0.836968       -22.7751
  82   2.0000      -0.830820       -22.6078
  83   2.0000      -0.829861       -22.5817
  84   2.0000      -0.821277       -22.3481
  85   2.0000      -0.815570       -22.1928
  86   2.0000      -0.804700       -21.8970
  87   2.0000      -0.778621       -21.1874
  88   2.0000      -0.762868       -20.7587
  89   2.0000      -0.752377       -20.4732
  90   2.0000      -0.742662       -20.2089
  91   2.0000      -0.730122       -19.8676
  92   2.0000      -0.723422       -19.6853
  93   2.0000      -0.719395       -19.5757
  94   2.0000      -0.708559       -19.2809
  95   2.0000      -0.695788       -18.9334
  96   2.0000      -0.680571       -18.5193
  97   2.0000      -0.673181       -18.3182
  98   2.0000      -0.666134       -18.1264
  99   2.0000      -0.658664       -17.9231
 100   2.0000      -0.650161       -17.6918
 101   2.0000      -0.624228       -16.9861
 102   2.0000      -0.620145       -16.8750
 103   2.0000      -0.616711       -16.7816
 104   2.0000      -0.612472       -16.6662
 105   2.0000      -0.602624       -16.3982
 106   2.0000      -0.601323       -16.3628
 107   2.0000      -0.593370       -16.1464
 108   2.0000      -0.589367       -16.0375
 109   2.0000      -0.586303       -15.9541
 110   2.0000      -0.576592       -15.6899
 111   2.0000      -0.571909       -15.5624
 112   2.0000      -0.571362       -15.5475
 113   2.0000      -0.566578       -15.4174
 114   2.0000      -0.563144       -15.3239
 115   2.0000      -0.558685       -15.2026
 116   2.0000      -0.556154       -15.1337
 117   2.0000      -0.554624       -15.0921
 118   2.0000      -0.551956       -15.0195
 119   2.0000      -0.551537       -15.0081
 120   2.0000      -0.545571       -14.8457
 121   2.0000      -0.544847       -14.8261
 122   2.0000      -0.543363       -14.7857
 123   2.0000      -0.537647       -14.6301
 124   2.0000      -0.535174       -14.5628
 125   2.0000      -0.533513       -14.5176
 126   2.0000      -0.532000       -14.4765
 127   2.0000      -0.527948       -14.3662
 128   2.0000      -0.525686       -14.3046
 129   2.0000      -0.521712       -14.1965
 130   2.0000      -0.520357       -14.1596
 131   2.0000      -0.517617       -14.0851
 132   2.0000      -0.515624       -14.0308
 133   2.0000      -0.511807       -13.9270
 134   2.0000      -0.507651       -13.8139
 135   2.0000      -0.504676       -13.7329
 136   2.0000      -0.499457       -13.5909
 137   2.0000      -0.496412       -13.5081
 138   2.0000      -0.495641       -13.4871
 139   2.0000      -0.494554       -13.4575
 140   2.0000      -0.493008       -13.4154
 141   2.0000      -0.489030       -13.3072
 142   2.0000      -0.482106       -13.1188
 143   2.0000      -0.478194       -13.0123
 144   2.0000      -0.473780       -12.8922
 145   2.0000      -0.473222       -12.8770
 146   2.0000      -0.471049       -12.8179
 147   2.0000      -0.467813       -12.7298
 148   2.0000      -0.464392       -12.6367
 149   2.0000      -0.463818       -12.6211
 150   2.0000      -0.459743       -12.5103
 151   2.0000      -0.455806       -12.4031
 152   2.0000      -0.451760       -12.2930
 153   2.0000      -0.441355       -12.0099
 154   2.0000      -0.438526       -11.9329
 155   2.0000      -0.430186       -11.7060
 156   2.0000      -0.426920       -11.6171
 157   2.0000      -0.419646       -11.4192
 158   2.0000      -0.412374       -11.2213
 159   2.0000      -0.404125       -10.9968
 160   2.0000      -0.396783       -10.7970
 161   2.0000      -0.393835       -10.7168
 162   2.0000      -0.390600       -10.6288
 163   2.0000      -0.386126       -10.5070
 164   2.0000      -0.380026       -10.3410
 165   2.0000      -0.377124       -10.2621
 166   2.0000      -0.371273       -10.1028
 167   2.0000      -0.366816        -9.9816
 168   2.0000      -0.359736        -9.7889
 169   2.0000      -0.356035        -9.6882
 170   2.0000      -0.345074        -9.3899
 171   2.0000      -0.343164        -9.3380
 172   2.0000      -0.336400        -9.1539
 173   2.0000      -0.333930        -9.0867
 174   2.0000      -0.311827        -8.4852
 175   2.0000      -0.302508        -8.2317
 176   2.0000      -0.295351        -8.0369
 177   2.0000      -0.285324        -7.7641
 178   2.0000      -0.253808        -6.9065
 179   0.0000      -0.024924        -0.6782
 180   0.0000       0.004653         0.1266
 181   0.0000       0.020946         0.5700
 182   0.0000       0.034948         0.9510
 183   0.0000       0.044738         1.2174

MULLIKEN ATOMIC CHARGES
-----------------------
   0 C :   -0.177581
   1 C :   -0.141338
   2 C :   -0.028197
   3 C :    0.172615
   4 C :   -0.240187
   5 C :   -0.076023
   6 C :   -0.026898
   7 C :    0.187935
   8 N :   -0.303097
   9 C :   -0.224742
  10 C :   -0.095604
  11 C :   -0.281491
  12 C :    0.109340
  13 H :    0.119233
  14 H :    0.236254
  15 H :    0.123679
  16 H :    0.164992
  17 H :    0.112460
  18 H :    0.120924
  19 H :    0.121230
  20 S :    0.014512
  21 C :    0.136955
  22 N :   -0.114971
  23 N :   -0.171829
  24 C :    0.104912
  25 C :    0.089159
  26 N :   -0.134033
  27 N :   -0.179787
  28 C :    0.198175
  29 S :   -0.016061
  30 C :    0.129564
  31 C :   -0.215389
  32 C :   -0.212223
  33 C :    0.055461
  34 C :    0.134133
  35 C :    0.076973
  36 C :    0.140114
  37 C :   -0.396531
  38 C :    0.132114
  39 C :   -0.069115
  40 N :   -0.315076
  41 C :    0.179538
  42 C :   -0.370577
  43 N :   -0.281347
  44 C :    0.175350
  45 C :   -0.381016
  46 N :   -0.259757
  47 C :    0.168565
  48 C :   -0.364050
  49 N :   -0.239111
  50 C :    0.099098
  51 C :   -0.366237
  52 C :   -0.415562
  53 C :   -0.355791
  54 C :   -0.369523
  55 C :   -0.379302
  56 H :    0.125879
  57 H :    0.164575
  58 H :    0.163654
  59 H :    0.130301
  60 H :    0.141720
  61 H :    0.149509
  62 H :    0.118905
  63 H :    0.153768
  64 H :    0.152537
  65 H :    0.138192
  66 H :    0.169769
  67 H :    0.116943
  68 H :    0.151690
  69 H :    0.138840
  70 H :    0.129114
  71 H :    0.131697
  72 H :    0.132884
  73 H :    0.131196
  74 H :    0.134338
  75 H :    0.153417
  76 H :    0.126969
  77 H :    0.137422
  78 H :    0.128358
  79 H :    0.158623
  80 H :    0.127170
  81 H :    0.148157
  82 H :    0.119255
  83 H :    0.124278
Sum of atomic charges:    0.0000000

LOEWDIN ATOMIC CHARGES
----------------------
   0 C :   -0.156862
   1 C :   -0.089597
   2 C :   -0.077714
   3 C :   -0.145071
   4 C :   -0.137753
   5 C :   -0.139434
   6 C :   -0.027880
   7 C :   -0.143524
   8 N :    0.200778
   9 C :   -0.120382
  10 C :   -0.143884
  11 C :   -0.126363
  12 C :   -0.115517
  13 H :    0.143536
  14 H :    0.193071
  15 H :    0.146780
  16 H :    0.155624
  17 H :    0.142007
  18 H :    0.144232
  19 H :    0.144754
  20 S :    0.722766
  21 C :   -0.374832
  22 N :    0.039502
  23 N :    0.066170
  24 C :   -0.469627
  25 C :   -0.454567
  26 N :    0.066834
  27 N :    0.053274
  28 C :   -0.376780
  29 S :    0.689966
  30 C :   -0.167127
  31 C :   -0.123889
  32 C :   -0.122633
  33 C :   -0.160196
  34 C :   -0.028852
  35 C :   -0.037217
  36 C :   -0.162234
  37 C :   -0.068490
  38 C :   -0.133035
  39 C :   -0.122870
  40 N :    0.167581
  41 C :   -0.265159
  42 C :   -0.263051
  43 N :    0.176756
  44 C :   -0.255291
  45 C :   -0.264464
  46 N :    0.182174
  47 C :   -0.258106
  48 C :   -0.262510
  49 N :    0.187168
  50 C :   -0.272859
  51 C :   -0.263669
  52 C :   -0.280398
  53 C :   -0.252772
  54 C :   -0.263155
  55 C :   -0.266727
  56 H :    0.150249
  57 H :    0.162134
  58 H :    0.139304
  59 H :    0.136280
  60 H :    0.133715
  61 H :    0.135409
  62 H :    0.128221
  63 H :    0.134658
  64 H :    0.134083
  65 H :    0.127849
  66 H :    0.133324
  67 H :    0.124159
  68 H :    0.133569
  69 H :    0.132337
  70 H :    0.130521
  71 H :    0.129271
  72 H :    0.128425
  73 H :    0.129603
  74 H :    0.131971
  75 H :    0.133437
  76 H :    0.129347
  77 H :    0.131007
  78 H :    0.126909
  79 H :    0.135695
  80 H :    0.128411
  81 H :    0.136907
  82 H :    0.145098
  83 H :    0.149626

  Mayer bond orders larger than 0.1
B(  0-C ,  1-C ) :   1.5387 B(  0-C ,  5-C ) :   1.3518 B(  0-C , 19-H ) :   0.9868
B(  1-C ,  2-C ) :   1.2627 B(  1-C , 16-H ) :   0.9352 B(  2-C ,  3-C ) :   1.3516
B(  2-C ,  6-C ) :   1.0794 B(  3-C ,  4-C ) :   1.3028 B(  3-C ,  8-N ) :   1.1129
B(  4-C ,  5-C ) :   1.4809 B(  4-C , 17-H ) :   0.9777 B(  5-C , 18-H ) :   0.9824
B(  6-C ,  7-C ) :   1.3138 B(  6-C , 12-C ) :   1.2410 B(  7-C ,  8-N ) :   1.1551
B(  7-C ,  9-C ) :   1.2873 B(  8-N , 14-H ) :   0.9133 B(  9-C , 10-C ) :   1.4654
B(  9-C , 82-H ) :   0.9748 B( 10-C , 11-C ) :   1.4167 B( 10-C , 15-H ) :   0.9834
B( 11-C , 12-C ) :   1.4082 B( 11-C , 13-H ) :   0.9679 B( 12-C , 28-C ) :   0.9356
B( 20-S , 21-C ) :   1.2846 B( 20-S , 24-C ) :   1.2722 B( 21-C , 22-N ) :   1.6774
B( 21-C , 38-C ) :   1.0235 B( 22-N , 23-N ) :   1.1370 B( 23-N , 24-C ) :   1.7072
B( 24-C , 25-C ) :   0.9973 B( 25-C , 26-N ) :   1.7259 B( 25-C , 29-S ) :   1.2767
B( 26-N , 27-N ) :   1.0831 B( 27-N , 28-C ) :   1.6571 B( 28-C , 29-S ) :   1.2662
B( 30-C , 31-C ) :   1.4767 B( 30-C , 35-C ) :   1.1818 B( 30-C , 49-N ) :   1.0894
B( 31-C , 32-C ) :   1.2530 B( 31-C , 56-H ) :   0.9877 B( 32-C , 33-C ) :   1.4880
B( 32-C , 83-H ) :   0.9829 B( 33-C , 34-C ) :   1.2056 B( 33-C , 46-N ) :   1.0866
B( 34-C , 35-C ) :   1.2737 B( 34-C , 36-C ) :   1.1834 B( 35-C , 39-C ) :   1.2259
B( 36-C , 37-C ) :   1.4763 B( 36-C , 43-N ) :   1.0494 B( 37-C , 38-C ) :   1.2170
B( 37-C , 57-H ) :   0.9736 B( 38-C , 39-C ) :   1.4458 B( 39-C , 40-N ) :   1.0763
B( 40-N , 41-C ) :   1.7863 B( 41-C , 42-C ) :   0.9403 B( 41-C , 53-C ) :   0.9359
B( 42-C , 61-H ) :   0.9507 B( 42-C , 62-H ) :   0.9661 B( 42-C , 63-H ) :   0.9927
B( 43-N , 44-C ) :   1.8909 B( 44-C , 45-C ) :   0.9513 B( 44-C , 54-C ) :   0.9527
B( 45-C , 79-H ) :   0.9782 B( 45-C , 80-H ) :   0.9613 B( 45-C , 81-H ) :   0.9568
B( 46-N , 47-C ) :   1.8958 B( 47-C , 48-C ) :   0.9564 B( 47-C , 55-C ) :   0.9439
B( 48-C , 70-H ) :   0.9663 B( 48-C , 71-H ) :   0.9581 B( 48-C , 72-H ) :   0.9876
B( 49-N , 50-C ) :   1.8738 B( 50-C , 51-C ) :   0.9610 B( 50-C , 52-C ) :   0.9440
B( 51-C , 67-H ) :   0.9672 B( 51-C , 68-H ) :   0.9888 B( 51-C , 69-H ) :   0.9545
B( 52-C , 64-H ) :   0.9578 B( 52-C , 65-H ) :   0.9621 B( 52-C , 66-H ) :   0.9792
B( 53-C , 58-H ) :   0.9776 B( 53-C , 59-H ) :   0.9601 B( 53-C , 60-H ) :   0.9589
B( 54-C , 76-H ) :   0.9671 B( 54-C , 77-H ) :   0.9584 B( 54-C , 78-H ) :   0.9885
B( 55-C , 73-H ) :   0.9617 B( 55-C , 74-H ) :   0.9600 B( 55-C , 75-H ) :   0.9810

Dispersion correction           -0.048790922
FINAL SINGLE POINT ENERGY     -2758.367030902804

DIPOLE MOMENT
-------------
                                X             Y             Z
Electronic contribution:     69.84463      -2.53275      -7.02597
Nuclear contribution   :    -71.36453       4.16603       9.86763
                        -----------------------------------------
Total Dipole Moment    :     -1.51990       1.63328       2.84166
                        -----------------------------------------
Magnitude (a.u.)       :      3.61286
Magnitude (Debye)      :      9.18315

                             ****ORCA TERMINATED NORMALLY****
TOTAL RUN TIME: 0 days 0 hours 23 minutes 50 seconds 475 msec
