                         Program Version 4.0.0 -  RELEASE  -
|  1> #
|  2> !wB97X-D3 def2-TZVP def2/J RIJCOSX Grid5 FinalGrid6 TightSCF
|  3> %pal
|  4>  nprocs 24
|  5> end
|  6> %tddft
|  7>   Mode sTDDFT
|  8>   nroots 2
|  9>   Ethresh 10.0
| 10>   maxcore 5000
| 11>   triplets true
| 12> end
| 13> * xyz 0 1
| 14> C -6.68345776 -0.51598913 -2.87286568
| 15> C -5.45587769 -0.42244094 -2.26463371
| 16> C -5.36278856 -0.13431164 -0.86481073
| 17> C -6.57623806 0.06525722 -0.11027168
| 18> C -7.83583848 -0.04220362 -0.78470253
| 19> C -7.88134727 -0.32623424 -2.12719106
| 20> N -4.14410745 -0.05273234 -0.27505544
| 21> C -4.10265680 0.21596769 1.05069744
| 22> C -5.32125666 0.44776812 1.79760761
| 23> N -6.54095405 0.36522030 1.21080630
| 24> C -5.23848846 0.77890787 3.18793756
| 25> C -4.01239180 0.88038582 3.79855567
| 26> C -2.81540488 0.64610720 3.07492700
| 27> C -2.82587329 0.30630245 1.73100506
| 28> H -1.86765205 0.71386799 3.60288202
| 29> H -3.94669362 1.13329291 4.85374499
| 30> H -6.15551935 0.94794685 3.74582476
| 31> H -8.83839298 -0.40754467 -2.63637606
| 32> H -4.54162216 -0.56917966 -2.83453996
| 33> H -6.75175119 -0.73748950 -3.93493905
| 34> S 2.65991885 1.82967070 1.99716150
| 35> C 2.14651191 0.68146370 0.76306004
| 36> C 3.21963103 0.29638003 -0.01555555
| 37> C 4.45906696 0.91449800 0.35828499
| 38> C 4.30663685 1.77849040 1.42875233
| 39> C 0.76843875 0.25565447 0.64894050
| 40> C -0.30885967 0.64599451 1.41826265
| 41> C -1.55336306 0.04395073 1.02950079
| 42> C -1.39810477 -0.81949257 -0.04065301
| 43> S 0.25784627 -0.89990054 -0.57923101
| 44> H -0.21755637 1.36769535 2.22413254
| 45> H 3.12185533 -0.39635818 -0.84424567
| 46> H -2.16927657 -1.41927917 -0.50556331
| 47> H 5.08726580 2.34818672 1.91699046
| 48> C 8.22996107 0.46179173 -1.58469721
| 49> N 7.91651358 1.60526418 -0.97995459
| 50> C 6.70275818 1.71084172 -0.36976701
| 51> C 5.75082401 0.69207409 -0.32357456
| 52> C 6.08185923 -0.55110742 -0.95784850
| 53> C 7.34913451 -0.65884009 -1.60828361
| 54> N 5.22434180 -1.62482464 -0.92034818
| 55> C 5.61957503 -2.73166152 -1.53651690
| 56> C 6.87172237 -2.82686598 -2.20805399
| 57> N 7.73258468 -1.81774435 -2.24289095
| 58> H 6.48134075 2.67658715 0.09653411
| 59> H 4.94353973 -3.59536023 -1.50890333
| 60> H 7.15838696 -3.75842862 -2.71066209
| 61> H -8.75161226 0.10412427 -0.21743572
| 62> H 9.20727162 0.39419689 -2.07603723
| 63> *
| 64> $new_job
| 65> #
| 66> !wB97X-D3 def2-TZVP def2/J RIJCOSX Grid5 FinalGrid6 TightSCF
| 67> %pal
| 68>  nprocs 24
| 69> end
| 70> %elprop
| 71>    dipole     true
| 72>    quadrupole true
| 73> end
| 74> %tddft
| 75>   Mode sTDDFT
| 76>   nroots 2
| 77>   Ethresh 10.0
| 78>   maxcore 5000
| 79> end
| 80> * xyz 0 1
| 81> C -6.68345776 -0.51598913 -2.87286568
| 82> C -5.45587769 -0.42244094 -2.26463371
| 83> C -5.36278856 -0.13431164 -0.86481073
| 84> C -6.57623806 0.06525722 -0.11027168
| 85> C -7.83583848 -0.04220362 -0.78470253
| 86> C -7.88134727 -0.32623424 -2.12719106
| 87> N -4.14410745 -0.05273234 -0.27505544
| 88> C -4.10265680 0.21596769 1.05069744
| 89> C -5.32125666 0.44776812 1.79760761
| 90> N -6.54095405 0.36522030 1.21080630
| 91> C -5.23848846 0.77890787 3.18793756
| 92> C -4.01239180 0.88038582 3.79855567
| 93> C -2.81540488 0.64610720 3.07492700
| 94> C -2.82587329 0.30630245 1.73100506
| 95> H -1.86765205 0.71386799 3.60288202
| 96> H -3.94669362 1.13329291 4.85374499
| 97> H -6.15551935 0.94794685 3.74582476
| 98> H -8.83839298 -0.40754467 -2.63637606
| 99> H -4.54162216 -0.56917966 -2.83453996
|100> H -6.75175119 -0.73748950 -3.93493905
|101> S 2.65991885 1.82967070 1.99716150
|102> C 2.14651191 0.68146370 0.76306004
|103> C 3.21963103 0.29638003 -0.01555555
|104> C 4.45906696 0.91449800 0.35828499
|105> C 4.30663685 1.77849040 1.42875233
|106> C 0.76843875 0.25565447 0.64894050
|107> C -0.30885967 0.64599451 1.41826265
|108> C -1.55336306 0.04395073 1.02950079
|109> C -1.39810477 -0.81949257 -0.04065301
|110> S 0.25784627 -0.89990054 -0.57923101
|111> H -0.21755637 1.36769535 2.22413254
|112> H 3.12185533 -0.39635818 -0.84424567
|113> H -2.16927657 -1.41927917 -0.50556331
|114> H 5.08726580 2.34818672 1.91699046
|115> C 8.22996107 0.46179173 -1.58469721
|116> N 7.91651358 1.60526418 -0.97995459
|117> C 6.70275818 1.71084172 -0.36976701
|118> C 5.75082401 0.69207409 -0.32357456
|119> C 6.08185923 -0.55110742 -0.95784850
|120> C 7.34913451 -0.65884009 -1.60828361
|121> N 5.22434180 -1.62482464 -0.92034818
|122> C 5.61957503 -2.73166152 -1.53651690
|123> C 6.87172237 -2.82686598 -2.20805399
|124> N 7.73258468 -1.81774435 -2.24289095
|125> H 6.48134075 2.67658715 0.09653411
|126> H 4.94353973 -3.59536023 -1.50890333
|127> H 7.15838696 -3.75842862 -2.71066209
|128> H -8.75161226 0.10412427 -0.21743572
|129> H 9.20727162 0.39419689 -2.07603723
|130> *
|131>
|132>                          ****END OF INPUT****
 Total Charge           Charge          ....    0
 Multiplicity           Mult            ....    1
 Number of Electrons    NEL             ....  244
Dispersion correction           -0.022675518
FINAL SINGLE POINT ENERGY     -2108.117356518066

CARTESIAN COORDINATES (ANGSTROEM)
---------------------------------
  C     -6.683458   -0.515989   -2.872866
  C     -5.455878   -0.422441   -2.264634
  C     -5.362789   -0.134312   -0.864811
  C     -6.576238    0.065257   -0.110272
  C     -7.835838   -0.042204   -0.784703
  C     -7.881347   -0.326234   -2.127191
  N     -4.144107   -0.052732   -0.275055
  C     -4.102657    0.215968    1.050697
  C     -5.321257    0.447768    1.797608
  N     -6.540954    0.365220    1.210806
  C     -5.238488    0.778908    3.187938
  C     -4.012392    0.880386    3.798556
  C     -2.815405    0.646107    3.074927
  C     -2.825873    0.306302    1.731005
  H     -1.867652    0.713868    3.602882
  H     -3.946694    1.133293    4.853745
  H     -6.155519    0.947947    3.745825
  H     -8.838393   -0.407545   -2.636376
  H     -4.541622   -0.569180   -2.834540
  H     -6.751751   -0.737490   -3.934939
  S      2.659919    1.829671    1.997161
  C      2.146512    0.681464    0.763060
  C      3.219631    0.296380   -0.015556
  C      4.459067    0.914498    0.358285
  C      4.306637    1.778490    1.428752
  C      0.768439    0.255654    0.648941
  C     -0.308860    0.645995    1.418263
  C     -1.553363    0.043951    1.029501
  C     -1.398105   -0.819493   -0.040653
  S      0.257846   -0.899901   -0.579231
  H     -0.217556    1.367695    2.224133
  H      3.121855   -0.396358   -0.844246
  H     -2.169277   -1.419279   -0.505563
  H      5.087266    2.348187    1.916990
  C      8.229961    0.461792   -1.584697
  N      7.916514    1.605264   -0.979955
  C      6.702758    1.710842   -0.369767
  C      5.750824    0.692074   -0.323575
  C      6.081859   -0.551107   -0.957848
  C      7.349135   -0.658840   -1.608284
  N      5.224342   -1.624825   -0.920348
  C      5.619575   -2.731662   -1.536517
  C      6.871722   -2.826866   -2.208054
  N      7.732585   -1.817744   -2.242891
  H      6.481341    2.676587    0.096534
  H      4.943540   -3.595360   -1.508903
  H      7.158387   -3.758429   -2.710662
  H     -8.751612    0.104124   -0.217436
  H      9.207272    0.394197   -2.076037

 Multiplicity           Mult            ....    1
 Number of Electrons    NEL             ....  244
 Basis Dimension        Dim             .... 1156

ORBITAL ENERGIES
----------------

  NO   OCC          E(Eh)            E(eV)
   0   2.0000     -88.986265     -2421.4394
   1   2.0000     -88.982236     -2421.3297
   2   2.0000     -14.463563      -393.5735
   3   2.0000     -14.460521      -393.4908
   4   2.0000     -14.446328      -393.1046
   5   2.0000     -14.446134      -393.0993
   6   2.0000     -14.440168      -392.9370
   7   2.0000     -10.352818      -281.7145
   8   2.0000     -10.352322      -281.7010
   9   2.0000     -10.348578      -281.5991
  10   2.0000     -10.344670      -281.4928
  11   2.0000     -10.341631      -281.4101
  12   2.0000     -10.338951      -281.3372
  13   2.0000     -10.338822      -281.3336
  14   2.0000     -10.338006      -281.3114
  15   2.0000     -10.335442      -281.2417
  16   2.0000     -10.330587      -281.1096
  17   2.0000     -10.330011      -281.0939
  18   2.0000     -10.328905      -281.0638
  19   2.0000     -10.320875      -280.8453
  20   2.0000     -10.319284      -280.8020
  21   2.0000     -10.315188      -280.6905
  22   2.0000     -10.311880      -280.6005
  23   2.0000     -10.308568      -280.5104
  24   2.0000     -10.303046      -280.3601
  25   2.0000     -10.302511      -280.3456
  26   2.0000     -10.301624      -280.3214
  27   2.0000     -10.301551      -280.3194
  28   2.0000     -10.300703      -280.2964
  29   2.0000     -10.299299      -280.2582
  30   2.0000     -10.298673      -280.2412
  31   2.0000     -10.295883      -280.1652
  32   2.0000     -10.291760      -280.0530
  33   2.0000     -10.289852      -280.0011
  34   2.0000      -8.082577      -219.9381
  35   2.0000      -8.078594      -219.8297
  36   2.0000      -6.035871      -164.2444
  37   2.0000      -6.031892      -164.1361
  38   2.0000      -6.031740      -164.1320
  39   2.0000      -6.029648      -164.0751
  40   2.0000      -6.027711      -164.0224
  41   2.0000      -6.025702      -163.9677
  42   2.0000      -1.116874       -30.3917
  43   2.0000      -1.101391       -29.9704
  44   2.0000      -1.065676       -28.9985
  45   2.0000      -1.043051       -28.3829
  46   2.0000      -1.031439       -28.0669
  47   2.0000      -1.015662       -27.6376
  48   2.0000      -0.999133       -27.1878
  49   2.0000      -0.987270       -26.8650
  50   2.0000      -0.961944       -26.1758
  51   2.0000      -0.938339       -25.5335
  52   2.0000      -0.911488       -24.8029
  53   2.0000      -0.902737       -24.5647
  54   2.0000      -0.881282       -23.9809
  55   2.0000      -0.876484       -23.8503
  56   2.0000      -0.867783       -23.6136
  57   2.0000      -0.853510       -23.2252
  58   2.0000      -0.836858       -22.7721
  59   2.0000      -0.818113       -22.2620
  60   2.0000      -0.808921       -22.0119
  61   2.0000      -0.800774       -21.7902
  62   2.0000      -0.785710       -21.3803
  63   2.0000      -0.763399       -20.7731
  64   2.0000      -0.745002       -20.2725
  65   2.0000      -0.731426       -19.9031
  66   2.0000      -0.721487       -19.6327
  67   2.0000      -0.710522       -19.3343
  68   2.0000      -0.681183       -18.5359
  69   2.0000      -0.677100       -18.4248
  70   2.0000      -0.668532       -18.1917
  71   2.0000      -0.664362       -18.0782
  72   2.0000      -0.653808       -17.7910
  73   2.0000      -0.649787       -17.6816
  74   2.0000      -0.638270       -17.3682
  75   2.0000      -0.631423       -17.1819
  76   2.0000      -0.615395       -16.7458
  77   2.0000      -0.602478       -16.3943
  78   2.0000      -0.593171       -16.1410
  79   2.0000      -0.586922       -15.9710
  80   2.0000      -0.579731       -15.7753
  81   2.0000      -0.573513       -15.6061
  82   2.0000      -0.568810       -15.4781
  83   2.0000      -0.564581       -15.3630
  84   2.0000      -0.561661       -15.2836
  85   2.0000      -0.553664       -15.0660
  86   2.0000      -0.543522       -14.7900
  87   2.0000      -0.537656       -14.6304
  88   2.0000      -0.530823       -14.4444
  89   2.0000      -0.519351       -14.1323
  90   2.0000      -0.517966       -14.0946
  91   2.0000      -0.515818       -14.0361
  92   2.0000      -0.505642       -13.7592
  93   2.0000      -0.499069       -13.5804
  94   2.0000      -0.494731       -13.4623
  95   2.0000      -0.491057       -13.3624
  96   2.0000      -0.486639       -13.2421
  97   2.0000      -0.485012       -13.1979
  98   2.0000      -0.483718       -13.1626
  99   2.0000      -0.475638       -12.9428
 100   2.0000      -0.474711       -12.9175
 101   2.0000      -0.462313       -12.5802
 102   2.0000      -0.457340       -12.4449
 103   2.0000      -0.453359       -12.3365
 104   2.0000      -0.451499       -12.2859
 105   2.0000      -0.445861       -12.1325
 106   2.0000      -0.433337       -11.7917
 107   2.0000      -0.430312       -11.7094
 108   2.0000      -0.423195       -11.5157
 109   2.0000      -0.414652       -11.2832
 110   2.0000      -0.391812       -10.6618
 111   2.0000      -0.379075       -10.3151
 112   2.0000      -0.375224       -10.2104
 113   2.0000      -0.369661       -10.0590
 114   2.0000      -0.361015        -9.8237
 115   2.0000      -0.355734        -9.6800
 116   2.0000      -0.349190        -9.5019
 117   2.0000      -0.340476        -9.2648
 118   2.0000      -0.338738        -9.2175
 119   2.0000      -0.322090        -8.7645
 120   2.0000      -0.302944        -8.2435
 121   2.0000      -0.279817        -7.6142
 122   0.0000      -0.042628        -1.1600
 123   0.0000      -0.032204        -0.8763
 124   0.0000       0.008715         0.2372
 125   0.0000       0.018884         0.5139
 126   0.0000       0.030009         0.8166

MULLIKEN ATOMIC CHARGES
-----------------------
   0 C :   -0.066524
   1 C :   -0.283361
   2 C :    0.206296
   3 C :    0.192784
   4 C :   -0.256406
   5 C :   -0.072057
   6 N :   -0.315054
   7 C :    0.194618
   8 C :    0.182883
   9 N :   -0.244420
  10 C :   -0.264586
  11 C :   -0.073536
  12 C :   -0.162264
  13 C :   -0.017693
  14 H :    0.135608
  15 H :    0.129684
  16 H :    0.129787
  17 H :    0.133537
  18 H :    0.135558
  19 H :    0.132838
  20 S :    0.050144
  21 C :    0.060633
  22 C :   -0.250001
  23 C :    0.137478
  24 C :   -0.250188
  25 C :    0.017609
  26 C :   -0.256574
  27 C :    0.103871
  28 C :   -0.203217
  29 S :    0.048835
  30 H :    0.157769
  31 H :    0.163588
  32 H :    0.171497
  33 H :    0.164723
  34 C :   -0.050906
  35 N :   -0.259604
  36 C :   -0.051929
  37 C :    0.004697
  38 C :    0.139250
  39 C :    0.135386
  40 N :   -0.300955
  41 C :   -0.009984
  42 C :   -0.007169
  43 N :   -0.243057
  44 H :    0.136653
  45 H :    0.144367
  46 H :    0.146068
  47 H :    0.133061
  48 H :    0.150260
Sum of atomic charges:   -0.0000000

LOEWDIN ATOMIC CHARGES
----------------------
   0 C :   -0.131829
   1 C :   -0.099838
   2 C :   -0.166906
   3 C :   -0.167391
   4 C :   -0.097252
   5 C :   -0.132142
   6 N :    0.206546
   7 C :   -0.122254
   8 C :   -0.164423
   9 N :    0.201090
  10 C :   -0.101196
  11 C :   -0.131215
  12 C :   -0.092293
  13 C :   -0.065397
  14 H :    0.152505
  15 H :    0.149180
  16 H :    0.152921
  17 H :    0.148239
  18 H :    0.152715
  19 H :    0.148147
  20 S :    0.712740
  21 C :   -0.350800
  22 C :   -0.126362
  23 C :   -0.162519
  24 C :   -0.346685
  25 C :   -0.352726
  26 C :   -0.134743
  27 C :   -0.164017
  28 C :   -0.333176
  29 S :    0.715257
  30 H :    0.145451
  31 H :    0.149695
  32 H :    0.136612
  33 H :    0.133213
  34 C :   -0.151773
  35 N :    0.123717
  36 C :   -0.152727
  37 C :   -0.078753
  38 C :   -0.123967
  39 C :   -0.180758
  40 N :    0.176985
  41 C :   -0.189010
  42 C :   -0.198508
  43 N :    0.175995
  44 H :    0.146774
  45 H :    0.145334
  46 H :    0.144223
  47 H :    0.153345
  48 H :    0.147976

  Mayer bond orders larger than 0.1
B(  0-C ,  1-C ) :   1.6143 B(  0-C ,  5-C ) :   1.1906 B(  0-C , 19-H ) :   0.9797
B(  1-C ,  2-C ) :   1.1799 B(  1-C , 18-H ) :   0.9735 B(  2-C ,  3-C ) :   1.1676
B(  2-C ,  6-N ) :   1.4033 B(  3-C ,  4-C ) :   1.2001 B(  3-C ,  9-N ) :   1.4066
B(  4-C ,  5-C ) :   1.6186 B(  4-C , 47-H ) :   0.9738 B(  5-C , 17-H ) :   0.9800
B(  6-N ,  7-C ) :   1.3612 B(  7-C ,  8-C ) :   1.1962 B(  7-C , 13-C ) :   1.1329
B(  8-C ,  9-N ) :   1.4279 B(  8-C , 10-C ) :   1.1923 B( 10-C , 11-C ) :   1.5951
B( 10-C , 16-H ) :   0.9829 B( 11-C , 12-C ) :   1.2301 B( 11-C , 15-H ) :   0.9847
B( 12-C , 13-C ) :   1.5661 B( 12-C , 14-H ) :   0.9583 B( 13-C , 27-C ) :   0.9066
B( 20-S , 21-C ) :   1.2530 B( 20-S , 24-C ) :   1.2937 B( 21-C , 22-C ) :   1.5856
B( 21-C , 25-C ) :   0.9427 B( 22-C , 23-C ) :   1.2534 B( 22-C , 31-H ) :   0.9004
B( 23-C , 24-C ) :   1.6242 B( 23-C , 37-C ) :   0.9094 B( 24-C , 33-H ) :   0.9388
B( 25-C , 26-C ) :   1.6071 B( 25-C , 29-S ) :   1.2638 B( 26-C , 27-C ) :   1.2617
B( 26-C , 30-H ) :   0.8831 B( 27-C , 28-C ) :   1.6468 B( 28-C , 29-S ) :   1.2988
B( 28-C , 32-H ) :   0.9194 B( 34-C , 35-N ) :   1.6203 B( 34-C , 39-C ) :   1.2157
B( 34-C , 48-H ) :   0.9764 B( 35-N , 36-C ) :   1.3698 B( 36-C , 37-C ) :   1.4921
B( 36-C , 44-H ) :   0.9847 B( 37-C , 38-C ) :   1.2187 B( 38-C , 39-C ) :   1.3101
B( 38-C , 40-N ) :   1.2084 B( 39-C , 43-N ) :   1.2958 B( 40-N , 41-C ) :   1.6485
B( 41-C , 42-C ) :   1.2286 B( 41-C , 45-H ) :   0.9628 B( 42-C , 43-N ) :   1.6222
B( 42-C , 46-H ) :   0.9628

Dispersion correction           -0.022675518
FINAL SINGLE POINT ENERGY     -2108.117356484936

DIPOLE MOMENT
-------------
                                X             Y             Z
Electronic contribution:     10.79788       1.13503       1.55617
Nuclear contribution   :    -11.52095      -2.01224      -1.75953
                        -----------------------------------------
Total Dipole Moment    :     -0.72307      -0.87720      -0.20336
                        -----------------------------------------
Magnitude (a.u.)       :      1.15485
Magnitude (Debye)      :      2.93539

                             ****ORCA TERMINATED NORMALLY****
TOTAL RUN TIME: 0 days 0 hours 10 minutes 11 seconds 446 msec
