                         Program Version 4.0.0 -  RELEASE  -
|  1> #
|  2> !wB97X-D3 def2-TZVP def2/J RIJCOSX Grid5 FinalGrid6 TightSCF
|  3> %pal
|  4>  nprocs 24
|  5> end
|  6> %tddft
|  7>   Mode sTDDFT
|  8>   nroots 2
|  9>   Ethresh 10.0
| 10>   maxcore 5000
| 11>   triplets true
| 12> end
| 13> * xyz 0 1
| 14> C -5.10611769 -2.36743971 1.08663598
| 15> C -4.16930848 -1.42270710 0.67594069
| 16> C -4.59427218 -0.10739967 0.40697190
| 17> C -5.96992497 0.20898541 0.58967709
| 18> C -6.91694098 -0.74270874 0.99787228
| 19> C -6.46400942 -2.03680302 1.24003157
| 20> C -3.93788944 1.12524822 -0.00155524
| 21> C -4.95397646 2.12639695 -0.01676956
| 22> N -6.16482368 1.55251942 0.32098820
| 23> C -4.69770886 3.47312234 -0.31461845
| 24> C -3.37990896 3.82864111 -0.59255321
| 25> C -2.36061120 2.86742686 -0.59280589
| 26> C -2.60775735 1.50851956 -0.32170021
| 27> H -1.34713465 3.17448537 -0.83672265
| 28> H -7.04614760 2.04567986 0.39534160
| 29> H -3.13633662 4.86225697 -0.82069256
| 30> H -3.12767544 -1.70882663 0.57377857
| 31> H -7.96252640 -0.47592182 1.12583962
| 32> H -7.16788485 -2.80091465 1.55862847
| 33> H -4.78234633 -3.38352892 1.29387503
| 34> C 4.06503816 -1.07533291 -0.34226177
| 35> N 3.55721817 -2.27255184 -0.66935377
| 36> O 2.21088162 -2.12409813 -0.74876165
| 37> C 1.86808100 -0.85452954 -0.47699128
| 38> C 3.00726007 -0.12398316 -0.20668808
| 39> C 0.45902851 -0.48739675 -0.50894479
| 40> N -0.50252295 -1.37455387 -0.80396716
| 41> O -1.68122498 -0.70197284 -0.73937359
| 42> C -1.47487950 0.58081582 -0.40725687
| 43> C -0.11583837 0.79070905 -0.25411371
| 44> H 0.38919811 1.70525593 0.02044512
| 45> H 3.06805996 0.92442364 0.04714305
| 46> C 5.50399396 -0.84965870 -0.16618130
| 47> C 5.99185006 0.39632943 0.17033516
| 48> C 7.38670721 0.65521460 0.35053476
| 49> C 8.32790545 -0.32565198 0.19862405
| 50> C 7.90345569 -1.65681885 -0.15261387
| 51> C 6.46546572 -1.93204497 -0.34036525
| 52> N 8.75252597 -2.65864296 -0.31728107
| 53> S 7.71353649 -4.15654221 -0.76034041
| 54> N 6.11816541 -3.16457257 -0.66161512
| 55> H 5.29739379 1.22164399 0.30647790
| 56> H 7.69273515 1.66418477 0.61543815
| 57> H -5.49560373 4.21024781 -0.31824545
| 58> H 9.38497058 -0.11760560 0.33799371
| 59> *
| 60> $new_job
| 61> #
| 62> !wB97X-D3 def2-TZVP def2/J RIJCOSX Grid5 FinalGrid6 TightSCF
| 63> %pal
| 64>  nprocs 24
| 65> end
| 66> %elprop
| 67>    dipole     true
| 68>    quadrupole true
| 69> end
| 70> %tddft
| 71>   Mode sTDDFT
| 72>   nroots 2
| 73>   Ethresh 10.0
| 74>   maxcore 5000
| 75> end
| 76> * xyz 0 1
| 77> C -5.10611769 -2.36743971 1.08663598
| 78> C -4.16930848 -1.42270710 0.67594069
| 79> C -4.59427218 -0.10739967 0.40697190
| 80> C -5.96992497 0.20898541 0.58967709
| 81> C -6.91694098 -0.74270874 0.99787228
| 82> C -6.46400942 -2.03680302 1.24003157
| 83> C -3.93788944 1.12524822 -0.00155524
| 84> C -4.95397646 2.12639695 -0.01676956
| 85> N -6.16482368 1.55251942 0.32098820
| 86> C -4.69770886 3.47312234 -0.31461845
| 87> C -3.37990896 3.82864111 -0.59255321
| 88> C -2.36061120 2.86742686 -0.59280589
| 89> C -2.60775735 1.50851956 -0.32170021
| 90> H -1.34713465 3.17448537 -0.83672265
| 91> H -7.04614760 2.04567986 0.39534160
| 92> H -3.13633662 4.86225697 -0.82069256
| 93> H -3.12767544 -1.70882663 0.57377857
| 94> H -7.96252640 -0.47592182 1.12583962
| 95> H -7.16788485 -2.80091465 1.55862847
| 96> H -4.78234633 -3.38352892 1.29387503
| 97> C 4.06503816 -1.07533291 -0.34226177
| 98> N 3.55721817 -2.27255184 -0.66935377
| 99> O 2.21088162 -2.12409813 -0.74876165
|100> C 1.86808100 -0.85452954 -0.47699128
|101> C 3.00726007 -0.12398316 -0.20668808
|102> C 0.45902851 -0.48739675 -0.50894479
|103> N -0.50252295 -1.37455387 -0.80396716
|104> O -1.68122498 -0.70197284 -0.73937359
|105> C -1.47487950 0.58081582 -0.40725687
|106> C -0.11583837 0.79070905 -0.25411371
|107> H 0.38919811 1.70525593 0.02044512
|108> H 3.06805996 0.92442364 0.04714305
|109> C 5.50399396 -0.84965870 -0.16618130
|110> C 5.99185006 0.39632943 0.17033516
|111> C 7.38670721 0.65521460 0.35053476
|112> C 8.32790545 -0.32565198 0.19862405
|113> C 7.90345569 -1.65681885 -0.15261387
|114> C 6.46546572 -1.93204497 -0.34036525
|115> N 8.75252597 -2.65864296 -0.31728107
|116> S 7.71353649 -4.15654221 -0.76034041
|117> N 6.11816541 -3.16457257 -0.66161512
|118> H 5.29739379 1.22164399 0.30647790
|119> H 7.69273515 1.66418477 0.61543815
|120> H -5.49560373 4.21024781 -0.31824545
|121> H 9.38497058 -0.11760560 0.33799371
|122> *
|123>
|124>                          ****END OF INPUT****
 Total Charge           Charge          ....    0
 Multiplicity           Mult            ....    1
 Number of Electrons    NEL             ....  224
Dispersion correction           -0.019849894
FINAL SINGLE POINT ENERGY     -1744.738271208996

CARTESIAN COORDINATES (ANGSTROEM)
---------------------------------
  C     -5.106118   -2.367440    1.086636
  C     -4.169308   -1.422707    0.675941
  C     -4.594272   -0.107400    0.406972
  C     -5.969925    0.208985    0.589677
  C     -6.916941   -0.742709    0.997872
  C     -6.464009   -2.036803    1.240032
  C     -3.937889    1.125248   -0.001555
  C     -4.953976    2.126397   -0.016770
  N     -6.164824    1.552519    0.320988
  C     -4.697709    3.473122   -0.314618
  C     -3.379909    3.828641   -0.592553
  C     -2.360611    2.867427   -0.592806
  C     -2.607757    1.508520   -0.321700
  H     -1.347135    3.174485   -0.836723
  H     -7.046148    2.045680    0.395342
  H     -3.136337    4.862257   -0.820693
  H     -3.127675   -1.708827    0.573779
  H     -7.962526   -0.475922    1.125840
  H     -7.167885   -2.800915    1.558628
  H     -4.782346   -3.383529    1.293875
  C      4.065038   -1.075333   -0.342262
  N      3.557218   -2.272552   -0.669354
  O      2.210882   -2.124098   -0.748762
  C      1.868081   -0.854530   -0.476991
  C      3.007260   -0.123983   -0.206688
  C      0.459029   -0.487397   -0.508945
  N     -0.502523   -1.374554   -0.803967
  O     -1.681225   -0.701973   -0.739374
  C     -1.474879    0.580816   -0.407257
  C     -0.115838    0.790709   -0.254114
  H      0.389198    1.705256    0.020445
  H      3.068060    0.924424    0.047143
  C      5.503994   -0.849659   -0.166181
  C      5.991850    0.396329    0.170335
  C      7.386707    0.655215    0.350535
  C      8.327905   -0.325652    0.198624
  C      7.903456   -1.656819   -0.152614
  C      6.465466   -1.932045   -0.340365
  N      8.752526   -2.658643   -0.317281
  S      7.713536   -4.156542   -0.760340
  N      6.118165   -3.164573   -0.661615
  H      5.297394    1.221644    0.306478
  H      7.692735    1.664185    0.615438
  H     -5.495604    4.210248   -0.318245
  H      9.384971   -0.117606    0.337994

 Multiplicity           Mult            ....    1
 Number of Electrons    NEL             ....  224
 Basis Dimension        Dim             .... 1076

ORBITAL ENERGIES
----------------

  NO   OCC          E(Eh)            E(eV)
   0   2.0000     -89.027790     -2422.5693
   1   2.0000     -19.342555      -526.3377
   2   2.0000     -19.336465      -526.1720
   3   2.0000     -14.486159      -394.1884
   4   2.0000     -14.481041      -394.0492
   5   2.0000     -14.480959      -394.0469
   6   2.0000     -14.479065      -393.9954
   7   2.0000     -14.475002      -393.8848
   8   2.0000     -10.374136      -282.2946
   9   2.0000     -10.373080      -282.2659
  10   2.0000     -10.351842      -281.6879
  11   2.0000     -10.350904      -281.6624
  12   2.0000     -10.348846      -281.6064
  13   2.0000     -10.341882      -281.4169
  14   2.0000     -10.338662      -281.3293
  15   2.0000     -10.335712      -281.2490
  16   2.0000     -10.330958      -281.1196
  17   2.0000     -10.323207      -280.9087
  18   2.0000     -10.323112      -280.9062
  19   2.0000     -10.318021      -280.7676
  20   2.0000     -10.316242      -280.7192
  21   2.0000     -10.308554      -280.5100
  22   2.0000     -10.308356      -280.5046
  23   2.0000     -10.305925      -280.4385
  24   2.0000     -10.302018      -280.3322
  25   2.0000     -10.299601      -280.2664
  26   2.0000     -10.297537      -280.2102
  27   2.0000     -10.295013      -280.1416
  28   2.0000     -10.289464      -279.9905
  29   2.0000     -10.288089      -279.9531
  30   2.0000     -10.285449      -279.8813
  31   2.0000     -10.276634      -279.6414
  32   2.0000      -8.116501      -220.8612
  33   2.0000      -6.072387      -165.2380
  34   2.0000      -6.066005      -165.0644
  35   2.0000      -6.061674      -164.9465
  36   2.0000      -1.291879       -35.1538
  37   2.0000      -1.284921       -34.9645
  38   2.0000      -1.112385       -30.2695
  39   2.0000      -1.089047       -29.6345
  40   2.0000      -1.020414       -27.7669
  41   2.0000      -1.007036       -27.4029
  42   2.0000      -0.992762       -27.0144
  43   2.0000      -0.987618       -26.8744
  44   2.0000      -0.971115       -26.4254
  45   2.0000      -0.968591       -26.3567
  46   2.0000      -0.942719       -25.6527
  47   2.0000      -0.922697       -25.1079
  48   2.0000      -0.907045       -24.6820
  49   2.0000      -0.884002       -24.0549
  50   2.0000      -0.876698       -23.8562
  51   2.0000      -0.864182       -23.5156
  52   2.0000      -0.851279       -23.1645
  53   2.0000      -0.845810       -23.0157
  54   2.0000      -0.786390       -21.3988
  55   2.0000      -0.777427       -21.1549
  56   2.0000      -0.774221       -21.0676
  57   2.0000      -0.757296       -20.6071
  58   2.0000      -0.739713       -20.1286
  59   2.0000      -0.730769       -19.8852
  60   2.0000      -0.721467       -19.6321
  61   2.0000      -0.718298       -19.5459
  62   2.0000      -0.705707       -19.2033
  63   2.0000      -0.704001       -19.1568
  64   2.0000      -0.668530       -18.1916
  65   2.0000      -0.664757       -18.0890
  66   2.0000      -0.633239       -17.2313
  67   2.0000      -0.620792       -16.8926
  68   2.0000      -0.618469       -16.8294
  69   2.0000      -0.611148       -16.6302
  70   2.0000      -0.607729       -16.5371
  71   2.0000      -0.606014       -16.4905
  72   2.0000      -0.598764       -16.2932
  73   2.0000      -0.593787       -16.1578
  74   2.0000      -0.586965       -15.9721
  75   2.0000      -0.570462       -15.5231
  76   2.0000      -0.568387       -15.4666
  77   2.0000      -0.562978       -15.3194
  78   2.0000      -0.552699       -15.0397
  79   2.0000      -0.545925       -14.8554
  80   2.0000      -0.544509       -14.8168
  81   2.0000      -0.535409       -14.5692
  82   2.0000      -0.535277       -14.5656
  83   2.0000      -0.531108       -14.4522
  84   2.0000      -0.528100       -14.3703
  85   2.0000      -0.513626       -13.9765
  86   2.0000      -0.503091       -13.6898
  87   2.0000      -0.496349       -13.5064
  88   2.0000      -0.488353       -13.2888
  89   2.0000      -0.484073       -13.1723
  90   2.0000      -0.478166       -13.0116
  91   2.0000      -0.473883       -12.8950
  92   2.0000      -0.472554       -12.8588
  93   2.0000      -0.468513       -12.7489
  94   2.0000      -0.450320       -12.2538
  95   2.0000      -0.448473       -12.2036
  96   2.0000      -0.445027       -12.1098
  97   2.0000      -0.440146       -11.9770
  98   2.0000      -0.431293       -11.7361
  99   2.0000      -0.424926       -11.5628
 100   2.0000      -0.413203       -11.2438
 101   2.0000      -0.403797       -10.9879
 102   2.0000      -0.399905       -10.8820
 103   2.0000      -0.396696       -10.7947
 104   2.0000      -0.377261       -10.2658
 105   2.0000      -0.376188       -10.2366
 106   2.0000      -0.353260        -9.6127
 107   2.0000      -0.347170        -9.4470
 108   2.0000      -0.337989        -9.1971
 109   2.0000      -0.321839        -8.7577
 110   2.0000      -0.305578        -8.3152
 111   2.0000      -0.294557        -8.0153
 112   0.0000      -0.049975        -1.3599
 113   0.0000      -0.004134        -0.1125
 114   0.0000       0.018619         0.5066
 115   0.0000       0.024776         0.6742
 116   0.0000       0.044285         1.2050

MULLIKEN ATOMIC CHARGES
-----------------------
   0 C :   -0.175766
   1 C :   -0.132813
   2 C :   -0.048302
   3 C :    0.170536
   4 C :   -0.239974
   5 C :   -0.075140
   6 C :   -0.019255
   7 C :    0.179118
   8 N :   -0.304273
   9 C :   -0.227519
  10 C :   -0.091270
  11 C :   -0.284486
  12 C :    0.075373
  13 H :    0.119498
  14 H :    0.237580
  15 H :    0.125739
  16 H :    0.153989
  17 H :    0.115385
  18 H :    0.124340
  19 H :    0.123998
  20 C :    0.257626
  21 N :   -0.108467
  22 O :   -0.098346
  23 C :    0.193159
  24 C :   -0.298072
  25 C :    0.141532
  26 N :   -0.159118
  27 O :   -0.127051
  28 C :    0.298388
  29 C :   -0.266326
  30 H :    0.160620
  31 H :    0.155930
  32 C :    0.041875
  33 C :   -0.147978
  34 C :   -0.112478
  35 C :   -0.176791
  36 C :    0.101425
  37 C :    0.025349
  38 N :   -0.223619
  39 S :    0.184165
  40 N :   -0.202835
  41 H :    0.127120
  42 H :    0.136653
  43 H :    0.122521
  44 H :    0.147957
Sum of atomic charges:   -0.0000000

LOEWDIN ATOMIC CHARGES
----------------------
   0 C :   -0.154852
   1 C :   -0.095698
   2 C :   -0.080805
   3 C :   -0.144216
   4 C :   -0.133708
   5 C :   -0.137593
   6 C :   -0.033778
   7 C :   -0.142891
   8 N :    0.202200
   9 C :   -0.120209
  10 C :   -0.141247
  11 C :   -0.109271
  12 C :   -0.082471
  13 H :    0.149230
  14 H :    0.194062
  15 H :    0.147440
  16 H :    0.152611
  17 H :    0.143318
  18 H :    0.145402
  19 H :    0.145542
  20 C :   -0.210731
  21 N :    0.068966
  22 O :    0.318979
  23 C :   -0.218299
  24 C :   -0.120796
  25 C :   -0.228336
  26 N :    0.049365
  27 O :    0.312361
  28 C :   -0.197611
  29 C :   -0.122282
  30 H :    0.147735
  31 H :    0.144824
  32 C :   -0.078345
  33 C :   -0.079968
  34 C :   -0.129445
  35 C :   -0.094020
  36 C :   -0.263055
  37 C :   -0.220164
  38 N :   -0.063869
  39 S :    0.509459
  40 N :   -0.032962
  41 H :    0.151992
  42 H :    0.151570
  43 H :    0.145726
  44 H :    0.155841

  Mayer bond orders larger than 0.1
B(  0-C ,  1-C ) :   1.5395 B(  0-C ,  5-C ) :   1.3545 B(  0-C , 19-H ) :   0.9841
B(  1-C ,  2-C ) :   1.2676 B(  1-C , 16-H ) :   0.9345 B(  2-C ,  3-C ) :   1.3621
B(  2-C ,  6-C ) :   1.0803 B(  3-C ,  4-C ) :   1.3043 B(  3-C ,  8-N ) :   1.1160
B(  4-C ,  5-C ) :   1.4841 B(  4-C , 17-H ) :   0.9775 B(  5-C , 18-H ) :   0.9797
B(  6-C ,  7-C ) :   1.3284 B(  6-C , 12-C ) :   1.2471 B(  7-C ,  8-N ) :   1.1578
B(  7-C ,  9-C ) :   1.2866 B(  8-N , 14-H ) :   0.9120 B(  9-C , 10-C ) :   1.4624
B(  9-C , 43-H ) :   0.9729 B( 10-C , 11-C ) :   1.4087 B( 10-C , 15-H ) :   0.9842
B( 11-C , 12-C ) :   1.4330 B( 11-C , 13-H ) :   0.9733 B( 12-C , 28-C ) :   0.9590
B( 20-C , 21-N ) :   1.6569 B( 20-C , 24-C ) :   1.2532 B( 20-C , 32-C ) :   0.9348
B( 21-N , 22-O ) :   0.9774 B( 21-N , 23-C ) :   0.1180 B( 22-O , 23-C ) :   1.2230
B( 23-C , 24-C ) :   1.6529 B( 23-C , 25-C ) :   0.9935 B( 24-C , 31-H ) :   0.9011
B( 25-C , 26-N ) :   1.6505 B( 25-C , 29-C ) :   1.2801 B( 26-N , 27-O ) :   0.9853
B( 26-N , 28-C ) :   0.1255 B( 27-O , 28-C ) :   1.1741 B( 28-C , 29-C ) :   1.6057
B( 29-C , 30-H ) :   0.9239 B( 32-C , 33-C ) :   1.6290 B( 32-C , 37-C ) :   1.0851
B( 33-C , 34-C ) :   1.1753 B( 33-C , 41-H ) :   0.9600 B( 34-C , 35-C ) :   1.6804
B( 34-C , 42-H ) :   0.9778 B( 35-C , 36-C ) :   1.1174 B( 35-C , 44-H ) :   0.9637
B( 36-C , 37-C ) :   1.0372 B( 36-C , 38-N ) :   1.7365 B( 37-C , 40-N ) :   1.7295
B( 38-N , 39-S ) :   1.1124 B( 38-N , 40-N ) :   0.1232 B( 39-S , 40-N ) :   1.1081

Dispersion correction           -0.019849894
FINAL SINGLE POINT ENERGY     -1744.738271219666

DIPOLE MOMENT
-------------
                                X             Y             Z
Electronic contribution:     21.73607     -14.02409      -4.96253
Nuclear contribution   :    -22.96012      17.25283       5.74648
                        -----------------------------------------
Total Dipole Moment    :     -1.22405       3.22873       0.78396
                        -----------------------------------------
Magnitude (a.u.)       :      3.54085
Magnitude (Debye)      :      9.00012

                             ****ORCA TERMINATED NORMALLY****
TOTAL RUN TIME: 0 days 0 hours 12 minutes 10 seconds 791 msec
