                         Program Version 4.0.0 -  RELEASE  -
|  1> #
|  2> !wB97X-D3 def2-TZVP def2/J RIJCOSX Grid5 FinalGrid6 TightSCF
|  3> %pal
|  4>  nprocs 24
|  5> end
|  6> %tddft
|  7>   Mode sTDDFT
|  8>   nroots 2
|  9>   Ethresh 10.0
| 10>   maxcore 5000
| 11>   triplets true
| 12> end
| 13> * xyz 0 1
| 14> C -4.36007689 -0.06200578 -2.66368016
| 15> C -3.82733826 -0.16853329 -1.38147686
| 16> C -4.65172097 0.09506800 -0.27158292
| 17> C -6.01921441 0.41490569 -0.50445451
| 18> C -6.55761465 0.52798325 -1.79553816
| 19> C -5.70479976 0.29282477 -2.87093336
| 20> C -4.47602899 0.05792641 1.17134888
| 21> C -5.76122080 0.31363187 1.73222929
| 22> N -6.66424263 0.55229257 0.71201113
| 23> C -6.00834288 0.28915718 3.11310980
| 24> C -4.93783510 -0.01793226 3.95027611
| 25> C -3.65836144 -0.25415454 3.42892220
| 26> C -3.39100729 -0.19867903 2.04884608
| 27> H -2.83628730 -0.46165450 4.10785855
| 28> H -7.65073255 0.74427874 0.83626986
| 29> H -5.09025133 -0.06056166 5.02505868
| 30> H -2.79142851 -0.46964375 -1.25452485
| 31> H -7.60368592 0.77937366 -1.94845403
| 32> H -6.08675897 0.36972832 -3.88531559
| 33> H -3.72650634 -0.26235734 -3.52312232
| 34> S 3.06480914 -0.74787016 0.65069096
| 35> C 1.57504851 0.13102455 0.22772623
| 36> N 1.76234646 1.05601288 -0.69844982
| 37> N 3.05402082 1.14276813 -1.13433971
| 38> C 3.88717100 0.28864402 -0.55201844
| 39> C 0.30613704 -0.16071411 0.85336652
| 40> N 0.13895133 -1.09534471 1.77889348
| 41> N -1.15138148 -1.18807665 2.22629902
| 42> C -1.98750149 -0.35049817 1.63110074
| 43> S -1.18429558 0.69975293 0.44272645
| 44> C 5.30662847 0.22804428 -0.90454328
| 45> C 6.28406206 -0.57881581 -0.25917764
| 46> C 7.61623210 -0.55263987 -0.69426481
| 47> C 8.02120887 0.26003740 -1.76409843
| 48> C 7.07002318 1.06672753 -2.41098842
| 49> C 5.74759953 1.04141305 -1.98035998
| 50> O 9.32252912 0.24508547 -2.14293017
| 51> O 8.56007346 -1.34055268 -0.05958301
| 52> O 6.03218175 -1.41211083 0.80378777
| 53> H 5.01121245 1.66216073 -2.48052533
| 54> H 9.79278583 -0.37541049 -1.56408731
| 55> H 8.09794192 -1.82276683 0.64540674
| 56> H 5.10571085 -1.37147322 1.08571740
| 57> H -6.99914103 0.48902274 3.51130578
| 58> H 7.36920067 1.69993150 -3.23860257
| 59> *
| 60> $new_job
| 61> #
| 62> !wB97X-D3 def2-TZVP def2/J RIJCOSX Grid5 FinalGrid6 TightSCF
| 63> %pal
| 64>  nprocs 24
| 65> end
| 66> %elprop
| 67>    dipole     true
| 68>    quadrupole true
| 69> end
| 70> %tddft
| 71>   Mode sTDDFT
| 72>   nroots 2
| 73>   Ethresh 10.0
| 74>   maxcore 5000
| 75> end
| 76> * xyz 0 1
| 77> C -4.36007689 -0.06200578 -2.66368016
| 78> C -3.82733826 -0.16853329 -1.38147686
| 79> C -4.65172097 0.09506800 -0.27158292
| 80> C -6.01921441 0.41490569 -0.50445451
| 81> C -6.55761465 0.52798325 -1.79553816
| 82> C -5.70479976 0.29282477 -2.87093336
| 83> C -4.47602899 0.05792641 1.17134888
| 84> C -5.76122080 0.31363187 1.73222929
| 85> N -6.66424263 0.55229257 0.71201113
| 86> C -6.00834288 0.28915718 3.11310980
| 87> C -4.93783510 -0.01793226 3.95027611
| 88> C -3.65836144 -0.25415454 3.42892220
| 89> C -3.39100729 -0.19867903 2.04884608
| 90> H -2.83628730 -0.46165450 4.10785855
| 91> H -7.65073255 0.74427874 0.83626986
| 92> H -5.09025133 -0.06056166 5.02505868
| 93> H -2.79142851 -0.46964375 -1.25452485
| 94> H -7.60368592 0.77937366 -1.94845403
| 95> H -6.08675897 0.36972832 -3.88531559
| 96> H -3.72650634 -0.26235734 -3.52312232
| 97> S 3.06480914 -0.74787016 0.65069096
| 98> C 1.57504851 0.13102455 0.22772623
| 99> N 1.76234646 1.05601288 -0.69844982
|100> N 3.05402082 1.14276813 -1.13433971
|101> C 3.88717100 0.28864402 -0.55201844
|102> C 0.30613704 -0.16071411 0.85336652
|103> N 0.13895133 -1.09534471 1.77889348
|104> N -1.15138148 -1.18807665 2.22629902
|105> C -1.98750149 -0.35049817 1.63110074
|106> S -1.18429558 0.69975293 0.44272645
|107> C 5.30662847 0.22804428 -0.90454328
|108> C 6.28406206 -0.57881581 -0.25917764
|109> C 7.61623210 -0.55263987 -0.69426481
|110> C 8.02120887 0.26003740 -1.76409843
|111> C 7.07002318 1.06672753 -2.41098842
|112> C 5.74759953 1.04141305 -1.98035998
|113> O 9.32252912 0.24508547 -2.14293017
|114> O 8.56007346 -1.34055268 -0.05958301
|115> O 6.03218175 -1.41211083 0.80378777
|116> H 5.01121245 1.66216073 -2.48052533
|117> H 9.79278583 -0.37541049 -1.56408731
|118> H 8.09794192 -1.82276683 0.64540674
|119> H 5.10571085 -1.37147322 1.08571740
|120> H -6.99914103 0.48902274 3.51130578
|121> H 7.36920067 1.69993150 -3.23860257
|122> *
|123>
|124>                          ****END OF INPUT****
 Total Charge           Charge          ....    0
 Multiplicity           Mult            ....    1
 Number of Electrons    NEL             ....  236
Dispersion correction           -0.020355302
FINAL SINGLE POINT ENERGY     -2142.076970828900

CARTESIAN COORDINATES (ANGSTROEM)
---------------------------------
  C     -4.360077   -0.062006   -2.663680
  C     -3.827338   -0.168533   -1.381477
  C     -4.651721    0.095068   -0.271583
  C     -6.019214    0.414906   -0.504455
  C     -6.557615    0.527983   -1.795538
  C     -5.704800    0.292825   -2.870933
  C     -4.476029    0.057926    1.171349
  C     -5.761221    0.313632    1.732229
  N     -6.664243    0.552293    0.712011
  C     -6.008343    0.289157    3.113110
  C     -4.937835   -0.017932    3.950276
  C     -3.658361   -0.254155    3.428922
  C     -3.391007   -0.198679    2.048846
  H     -2.836287   -0.461655    4.107859
  H     -7.650733    0.744279    0.836270
  H     -5.090251   -0.060562    5.025059
  H     -2.791429   -0.469644   -1.254525
  H     -7.603686    0.779374   -1.948454
  H     -6.086759    0.369728   -3.885316
  H     -3.726506   -0.262357   -3.523122
  S      3.064809   -0.747870    0.650691
  C      1.575049    0.131025    0.227726
  N      1.762346    1.056013   -0.698450
  N      3.054021    1.142768   -1.134340
  C      3.887171    0.288644   -0.552018
  C      0.306137   -0.160714    0.853367
  N      0.138951   -1.095345    1.778893
  N     -1.151381   -1.188077    2.226299
  C     -1.987501   -0.350498    1.631101
  S     -1.184296    0.699753    0.442726
  C      5.306628    0.228044   -0.904543
  C      6.284062   -0.578816   -0.259178
  C      7.616232   -0.552640   -0.694265
  C      8.021209    0.260037   -1.764098
  C      7.070023    1.066728   -2.410988
  C      5.747600    1.041413   -1.980360
  O      9.322529    0.245085   -2.142930
  O      8.560073   -1.340553   -0.059583
  O      6.032182   -1.412111    0.803788
  H      5.011212    1.662161   -2.480525
  H      9.792786   -0.375410   -1.564087
  H      8.097942   -1.822767    0.645407
  H      5.105711   -1.371473    1.085717
  H     -6.999141    0.489023    3.511306
  H      7.369201    1.699931   -3.238603

 Multiplicity           Mult            ....    1
 Number of Electrons    NEL             ....  236
 Basis Dimension        Dim             .... 1082

ORBITAL ENERGIES
----------------

  NO   OCC          E(Eh)            E(eV)
   0   2.0000     -89.019857     -2422.3535
   1   2.0000     -89.011831     -2422.1351
   2   2.0000     -19.298017      -525.1258
   3   2.0000     -19.281211      -524.6684
   4   2.0000     -19.276979      -524.5533
   5   2.0000     -14.483193      -394.1077
   6   2.0000     -14.477235      -393.9456
   7   2.0000     -14.476415      -393.9233
   8   2.0000     -14.468798      -393.7160
   9   2.0000     -14.468123      -393.6977
  10   2.0000     -10.388135      -282.6755
  11   2.0000     -10.387185      -282.6497
  12   2.0000     -10.383406      -282.5468
  13   2.0000     -10.377143      -282.3764
  14   2.0000     -10.376516      -282.3594
  15   2.0000     -10.365017      -282.0465
  16   2.0000     -10.355163      -281.7783
  17   2.0000     -10.339166      -281.3430
  18   2.0000     -10.335097      -281.2323
  19   2.0000     -10.322260      -280.8830
  20   2.0000     -10.319536      -280.8089
  21   2.0000     -10.309220      -280.5281
  22   2.0000     -10.301979      -280.3311
  23   2.0000     -10.300421      -280.2887
  24   2.0000     -10.299971      -280.2765
  25   2.0000     -10.297411      -280.2068
  26   2.0000     -10.294383      -280.1244
  27   2.0000     -10.293637      -280.1041
  28   2.0000     -10.293482      -280.0999
  29   2.0000     -10.292809      -280.0816
  30   2.0000     -10.291163      -280.0368
  31   2.0000     -10.283265      -279.8219
  32   2.0000      -8.116583      -220.8635
  33   2.0000      -8.108093      -220.6324
  34   2.0000      -6.069537      -165.1605
  35   2.0000      -6.066115      -165.0674
  36   2.0000      -6.063486      -164.9958
  37   2.0000      -6.061164      -164.9327
  38   2.0000      -6.057237      -164.8258
  39   2.0000      -6.055172      -164.7696
  40   2.0000      -1.218997       -33.1706
  41   2.0000      -1.200128       -32.6572
  42   2.0000      -1.175450       -31.9856
  43   2.0000      -1.162125       -31.6230
  44   2.0000      -1.152937       -31.3730
  45   2.0000      -1.114515       -30.3275
  46   2.0000      -1.002069       -27.2677
  47   2.0000      -0.993276       -27.0284
  48   2.0000      -0.977433       -26.5973
  49   2.0000      -0.974445       -26.5160
  50   2.0000      -0.952919       -25.9302
  51   2.0000      -0.938989       -25.5512
  52   2.0000      -0.921369       -25.0717
  53   2.0000      -0.908990       -24.7349
  54   2.0000      -0.880527       -23.9604
  55   2.0000      -0.876136       -23.8409
  56   2.0000      -0.870454       -23.6863
  57   2.0000      -0.855018       -23.2662
  58   2.0000      -0.848224       -23.0813
  59   2.0000      -0.788419       -21.4540
  60   2.0000      -0.782404       -21.2903
  61   2.0000      -0.774238       -21.0681
  62   2.0000      -0.757666       -20.6172
  63   2.0000      -0.738468       -20.0947
  64   2.0000      -0.730258       -19.8713
  65   2.0000      -0.722506       -19.6604
  66   2.0000      -0.706968       -19.2376
  67   2.0000      -0.685300       -18.6480
  68   2.0000      -0.683617       -18.6022
  69   2.0000      -0.675637       -18.3850
  70   2.0000      -0.658031       -17.9059
  71   2.0000      -0.645766       -17.5722
  72   2.0000      -0.635238       -17.2857
  73   2.0000      -0.631479       -17.1834
  74   2.0000      -0.621501       -16.9119
  75   2.0000      -0.615368       -16.7450
  76   2.0000      -0.594888       -16.1877
  77   2.0000      -0.581479       -15.8229
  78   2.0000      -0.574265       -15.6265
  79   2.0000      -0.573061       -15.5938
  80   2.0000      -0.566947       -15.4274
  81   2.0000      -0.564619       -15.3641
  82   2.0000      -0.559644       -15.2287
  83   2.0000      -0.556584       -15.1454
  84   2.0000      -0.549026       -14.9397
  85   2.0000      -0.548061       -14.9135
  86   2.0000      -0.539628       -14.6840
  87   2.0000      -0.537262       -14.6196
  88   2.0000      -0.529161       -14.3992
  89   2.0000      -0.527908       -14.3651
  90   2.0000      -0.524933       -14.2842
  91   2.0000      -0.517424       -14.0798
  92   2.0000      -0.515260       -14.0209
  93   2.0000      -0.499142       -13.5823
  94   2.0000      -0.481570       -13.1042
  95   2.0000      -0.478427       -13.0186
  96   2.0000      -0.476081       -12.9548
  97   2.0000      -0.475204       -12.9310
  98   2.0000      -0.473116       -12.8742
  99   2.0000      -0.466906       -12.7051
 100   2.0000      -0.459264       -12.4972
 101   2.0000      -0.454354       -12.3636
 102   2.0000      -0.447800       -12.1853
 103   2.0000      -0.444453       -12.0942
 104   2.0000      -0.428535       -11.6610
 105   2.0000      -0.419089       -11.4040
 106   2.0000      -0.408515       -11.1163
 107   2.0000      -0.406402       -11.0588
 108   2.0000      -0.396379       -10.7860
 109   2.0000      -0.390075       -10.6145
 110   2.0000      -0.380061       -10.3420
 111   2.0000      -0.373356       -10.1595
 112   2.0000      -0.368856       -10.0371
 113   2.0000      -0.345030        -9.3887
 114   2.0000      -0.322062        -8.7638
 115   2.0000      -0.309292        -8.4163
 116   2.0000      -0.304033        -8.2731
 117   2.0000      -0.295636        -8.0447
 118   0.0000      -0.036404        -0.9906
 119   0.0000       0.001478         0.0402
 120   0.0000       0.028213         0.7677
 121   0.0000       0.036642         0.9971
 122   0.0000       0.047588         1.2949

MULLIKEN ATOMIC CHARGES
-----------------------
   0 C :   -0.171376
   1 C :   -0.128251
   2 C :   -0.029736
   3 C :    0.161636
   4 C :   -0.226877
   5 C :   -0.084489
   6 C :   -0.041751
   7 C :    0.175819
   8 N :   -0.300737
   9 C :   -0.231738
  10 C :   -0.060728
  11 C :   -0.288796
  12 C :    0.176946
  13 H :    0.148467
  14 H :    0.238716
  15 H :    0.129555
  16 H :    0.140665
  17 H :    0.118339
  18 H :    0.126926
  19 H :    0.123400
  20 S :   -0.018870
  21 C :    0.093886
  22 N :   -0.177376
  23 N :   -0.149133
  24 C :    0.210799
  25 C :    0.125858
  26 N :   -0.171167
  27 N :   -0.155160
  28 C :    0.067548
  29 S :    0.066895
  30 C :   -0.077803
  31 C :    0.203767
  32 C :    0.119183
  33 C :    0.193027
  34 C :   -0.249786
  35 C :   -0.172116
  36 O :   -0.406422
  37 O :   -0.474107
  38 O :   -0.452857
  39 H :    0.165254
  40 H :    0.346690
  41 H :    0.352639
  42 H :    0.322942
  43 H :    0.122351
  44 H :    0.137969
Sum of atomic charges:   -0.0000000

LOEWDIN ATOMIC CHARGES
----------------------
   0 C :   -0.154578
   1 C :   -0.113624
   2 C :   -0.086564
   3 C :   -0.143406
   4 C :   -0.129838
   5 C :   -0.137197
   6 C :   -0.045980
   7 C :   -0.143102
   8 N :    0.202465
   9 C :   -0.118056
  10 C :   -0.136758
  11 C :   -0.097317
  12 C :   -0.115806
  13 H :    0.156159
  14 H :    0.194433
  15 H :    0.148468
  16 H :    0.140681
  17 H :    0.144236
  18 H :    0.146150
  19 H :    0.145620
  20 S :    0.689078
  21 C :   -0.453819
  22 N :    0.058069
  23 N :    0.039982
  24 C :   -0.378843
  25 C :   -0.464681
  26 N :    0.043973
  27 N :    0.049602
  28 C :   -0.382062
  29 S :    0.758324
  30 C :   -0.157419
  31 C :   -0.209076
  32 C :   -0.233632
  33 C :   -0.240359
  34 C :   -0.124691
  35 C :   -0.083392
  36 O :    0.098296
  37 O :    0.044035
  38 O :    0.068422
  39 H :    0.160783
  40 H :    0.202339
  41 H :    0.201173
  42 H :    0.158145
  43 H :    0.145873
  44 H :    0.153895

  Mayer bond orders larger than 0.1
B(  0-C ,  1-C ) :   1.5383 B(  0-C ,  5-C ) :   1.3588 B(  0-C , 19-H ) :   0.9818
B(  1-C ,  2-C ) :   1.2564 B(  1-C , 16-H ) :   0.9330 B(  2-C ,  3-C ) :   1.3934
B(  2-C ,  6-C ) :   1.0866 B(  3-C ,  4-C ) :   1.3142 B(  3-C ,  8-N ) :   1.1237
B(  4-C ,  5-C ) :   1.4869 B(  4-C , 17-H ) :   0.9717 B(  5-C , 18-H ) :   0.9793
B(  6-C ,  7-C ) :   1.3416 B(  6-C , 12-C ) :   1.2103 B(  7-C ,  8-N ) :   1.1508
B(  7-C ,  9-C ) :   1.2907 B(  8-N , 14-H ) :   0.9119 B(  9-C , 10-C ) :   1.4588
B(  9-C , 43-H ) :   0.9708 B( 10-C , 11-C ) :   1.3838 B( 10-C , 15-H ) :   0.9825
B( 11-C , 12-C ) :   1.4607 B( 11-C , 13-H ) :   0.9567 B( 12-C , 28-C ) :   0.8740
B( 20-S , 21-C ) :   1.2638 B( 20-S , 24-C ) :   1.2302 B( 21-C , 22-N ) :   1.7252
B( 21-C , 25-C ) :   0.9359 B( 22-N , 23-N ) :   1.1595 B( 23-N , 24-C ) :   1.6815
B( 24-C , 30-C ) :   0.9440 B( 25-C , 26-N ) :   1.7180 B( 25-C , 29-S ) :   1.2879
B( 26-N , 27-N ) :   1.1580 B( 27-N , 28-C ) :   1.7011 B( 28-C , 29-S ) :   1.2522
B( 30-C , 31-C ) :   1.2475 B( 30-C , 35-C ) :   1.3755 B( 31-C , 32-C ) :   1.3562
B( 31-C , 38-O ) :   1.0412 B( 32-C , 33-C ) :   1.3400 B( 32-C , 37-O ) :   1.0683
B( 33-C , 34-C ) :   1.3784 B( 33-C , 36-O ) :   1.1901 B( 34-C , 35-C ) :   1.4999
B( 34-C , 44-H ) :   0.9817 B( 35-C , 39-H ) :   0.9491 B( 36-O , 40-H ) :   0.8575
B( 37-O , 41-H ) :   0.8550 B( 38-O , 42-H ) :   0.8563

Dispersion correction           -0.020355302
FINAL SINGLE POINT ENERGY     -2142.076970753656

DIPOLE MOMENT
-------------
                                X             Y             Z
Electronic contribution:     10.58408      -0.88400       4.38196
Nuclear contribution   :    -12.21695       0.88886      -3.92533
                        -----------------------------------------
Total Dipole Moment    :     -1.63288       0.00486       0.45663
                        -----------------------------------------
Magnitude (a.u.)       :      1.69553
Magnitude (Debye)      :      4.30969

                             ****ORCA TERMINATED NORMALLY****
TOTAL RUN TIME: 0 days 0 hours 10 minutes 54 seconds 555 msec
