                         Program Version 4.0.0 -  RELEASE  -
|  1> #
|  2> !wB97X-D3 def2-TZVP def2/J RIJCOSX Grid5 FinalGrid6 TightSCF
|  3> %pal
|  4>  nprocs 24
|  5> end
|  6> %tddft
|  7>   Mode sTDDFT
|  8>   nroots 2
|  9>   Ethresh 10.0
| 10>   maxcore 5000
| 11>   triplets true
| 12> end
| 13> * xyz 0 1
| 14> C -6.92930161 0.39038073 1.48740039
| 15> C -8.05701412 0.66689004 2.26365214
| 16> C -9.34272238 0.63418851 1.70821543
| 17> C -9.53957903 0.28016859 0.37000720
| 18> C -8.40722003 -0.00190192 -0.39957272
| 19> C -7.08975472 0.09722634 0.12328584
| 20> N -8.35448008 -0.44123839 -1.71566061
| 21> C -7.03097113 -0.72961362 -2.08728201
| 22> C -6.15762107 -0.34067871 -0.91154971
| 23> C -4.77672617 -0.33170099 -0.92681785
| 24> C -3.91367107 -1.23127314 -1.78994806
| 25> N -2.58965245 -1.02880455 -1.37481480
| 26> C -2.51960939 -0.04244929 -0.40803424
| 27> C -3.83339519 0.40014861 -0.08773867
| 28> C -3.99090700 1.50305562 0.76460319
| 29> C -2.85712270 2.07151780 1.35137988
| 30> C -1.57812381 1.57556576 1.08597551
| 31> C -1.36293623 0.51580557 0.18089342
| 32> O -4.23534569 -2.08101063 -2.61234936
| 33> O -6.72420408 -1.10620584 -3.21217073
| 34> H -5.94769746 0.37645457 1.95016607
| 35> H -7.93591677 0.90354761 3.31676312
| 36> H -9.16062471 -0.64748574 -2.29510759
| 37> H -1.77152789 -1.47554286 -1.78696562
| 38> H -10.20232946 0.86109305 2.33312803
| 39> H -4.96947482 1.93385828 0.94943765
| 40> H -2.96933235 2.91790295 2.02255755
| 41> H -0.72725619 2.04253694 1.57378776
| 42> N 3.88132039 1.37237678 1.26238803
| 43> C 3.71992001 0.38604091 0.39596336
| 44> C 4.88540233 -0.28686494 -0.11670871
| 45> C 6.07588178 0.20391204 0.38223023
| 46> S 5.78105303 1.51964029 1.50673689
| 47> C 2.35554244 0.01692876 -0.00863576
| 48> C 1.19417528 0.60867817 0.42734249
| 49> C -0.00141086 0.03425596 -0.14454353
| 50> N 0.14287904 -0.96804805 -0.99883709
| 51> S 2.04723364 -1.27480016 -1.14200069
| 52> H 1.20174655 1.43084051 1.13510995
| 53> H 4.81255377 -1.10087943 -0.82826235
| 54> C 10.12136244 -1.06588119 -0.47462847
| 55> C 9.04598518 -1.71303632 -1.10222254
| 56> C 7.72780469 -1.30644810 -0.82915246
| 57> C 7.43791988 -0.24539786 0.07510614
| 58> C 8.55672109 0.37930522 0.68586355
| 59> C 9.88304956 -0.01087689 0.42753006
| 60> O 8.33468803 1.39233119 1.55251747
| 61> O 6.72257100 -1.95709759 -1.45556333
| 62> O 11.38119557 -1.46627212 -0.74589945
| 63> H 12.02179528 -0.94023765 -0.25023136
| 64> H 7.07658880 -2.64605204 -2.03334107
| 65> H 9.16204390 1.74305096 1.90696718
| 66> H 10.70834068 0.49741542 0.91923486
| 67> H -10.53738733 0.20979445 -0.05295798
| 68> H 9.23554144 -2.52511363 -1.79634664
| 69> *
| 70> $new_job
| 71> #
| 72> !wB97X-D3 def2-TZVP def2/J RIJCOSX Grid5 FinalGrid6 TightSCF
| 73> %pal
| 74>  nprocs 24
| 75> end
| 76> %elprop
| 77>    dipole     true
| 78>    quadrupole true
| 79> end
| 80> %tddft
| 81>   Mode sTDDFT
| 82>   nroots 2
| 83>   Ethresh 10.0
| 84>   maxcore 5000
| 85> end
| 86> * xyz 0 1
| 87> C -6.92930161 0.39038073 1.48740039
| 88> C -8.05701412 0.66689004 2.26365214
| 89> C -9.34272238 0.63418851 1.70821543
| 90> C -9.53957903 0.28016859 0.37000720
| 91> C -8.40722003 -0.00190192 -0.39957272
| 92> C -7.08975472 0.09722634 0.12328584
| 93> N -8.35448008 -0.44123839 -1.71566061
| 94> C -7.03097113 -0.72961362 -2.08728201
| 95> C -6.15762107 -0.34067871 -0.91154971
| 96> C -4.77672617 -0.33170099 -0.92681785
| 97> C -3.91367107 -1.23127314 -1.78994806
| 98> N -2.58965245 -1.02880455 -1.37481480
| 99> C -2.51960939 -0.04244929 -0.40803424
|100> C -3.83339519 0.40014861 -0.08773867
|101> C -3.99090700 1.50305562 0.76460319
|102> C -2.85712270 2.07151780 1.35137988
|103> C -1.57812381 1.57556576 1.08597551
|104> C -1.36293623 0.51580557 0.18089342
|105> O -4.23534569 -2.08101063 -2.61234936
|106> O -6.72420408 -1.10620584 -3.21217073
|107> H -5.94769746 0.37645457 1.95016607
|108> H -7.93591677 0.90354761 3.31676312
|109> H -9.16062471 -0.64748574 -2.29510759
|110> H -1.77152789 -1.47554286 -1.78696562
|111> H -10.20232946 0.86109305 2.33312803
|112> H -4.96947482 1.93385828 0.94943765
|113> H -2.96933235 2.91790295 2.02255755
|114> H -0.72725619 2.04253694 1.57378776
|115> N 3.88132039 1.37237678 1.26238803
|116> C 3.71992001 0.38604091 0.39596336
|117> C 4.88540233 -0.28686494 -0.11670871
|118> C 6.07588178 0.20391204 0.38223023
|119> S 5.78105303 1.51964029 1.50673689
|120> C 2.35554244 0.01692876 -0.00863576
|121> C 1.19417528 0.60867817 0.42734249
|122> C -0.00141086 0.03425596 -0.14454353
|123> N 0.14287904 -0.96804805 -0.99883709
|124> S 2.04723364 -1.27480016 -1.14200069
|125> H 1.20174655 1.43084051 1.13510995
|126> H 4.81255377 -1.10087943 -0.82826235
|127> C 10.12136244 -1.06588119 -0.47462847
|128> C 9.04598518 -1.71303632 -1.10222254
|129> C 7.72780469 -1.30644810 -0.82915246
|130> C 7.43791988 -0.24539786 0.07510614
|131> C 8.55672109 0.37930522 0.68586355
|132> C 9.88304956 -0.01087689 0.42753006
|133> O 8.33468803 1.39233119 1.55251747
|134> O 6.72257100 -1.95709759 -1.45556333
|135> O 11.38119557 -1.46627212 -0.74589945
|136> H 12.02179528 -0.94023765 -0.25023136
|137> H 7.07658880 -2.64605204 -2.03334107
|138> H 9.16204390 1.74305096 1.90696718
|139> H 10.70834068 0.49741542 0.91923486
|140> H -10.53738733 0.20979445 -0.05295798
|141> H 9.23554144 -2.52511363 -1.79634664
|142> *
|143>
|144>                          ****END OF INPUT****
 Total Charge           Charge          ....    0
 Multiplicity           Mult            ....    1
 Number of Electrons    NEL             ....  284
Dispersion correction           -0.027172565
FINAL SINGLE POINT ENERGY     -2468.249410851831

CARTESIAN COORDINATES (ANGSTROEM)
---------------------------------
  C     -6.929302    0.390381    1.487400
  C     -8.057014    0.666890    2.263652
  C     -9.342722    0.634189    1.708215
  C     -9.539579    0.280169    0.370007
  C     -8.407220   -0.001902   -0.399573
  C     -7.089755    0.097226    0.123286
  N     -8.354480   -0.441238   -1.715661
  C     -7.030971   -0.729614   -2.087282
  C     -6.157621   -0.340679   -0.911550
  C     -4.776726   -0.331701   -0.926818
  C     -3.913671   -1.231273   -1.789948
  N     -2.589652   -1.028805   -1.374815
  C     -2.519609   -0.042449   -0.408034
  C     -3.833395    0.400149   -0.087739
  C     -3.990907    1.503056    0.764603
  C     -2.857123    2.071518    1.351380
  C     -1.578124    1.575566    1.085976
  C     -1.362936    0.515806    0.180893
  O     -4.235346   -2.081011   -2.612349
  O     -6.724204   -1.106206   -3.212171
  H     -5.947697    0.376455    1.950166
  H     -7.935917    0.903548    3.316763
  H     -9.160625   -0.647486   -2.295108
  H     -1.771528   -1.475543   -1.786966
  H    -10.202329    0.861093    2.333128
  H     -4.969475    1.933858    0.949438
  H     -2.969332    2.917903    2.022558
  H     -0.727256    2.042537    1.573788
  N      3.881320    1.372377    1.262388
  C      3.719920    0.386041    0.395963
  C      4.885402   -0.286865   -0.116709
  C      6.075882    0.203912    0.382230
  S      5.781053    1.519640    1.506737
  C      2.355542    0.016929   -0.008636
  C      1.194175    0.608678    0.427342
  C     -0.001411    0.034256   -0.144544
  N      0.142879   -0.968048   -0.998837
  S      2.047234   -1.274800   -1.142001
  H      1.201747    1.430841    1.135110
  H      4.812554   -1.100879   -0.828262
  C     10.121362   -1.065881   -0.474628
  C      9.045985   -1.713036   -1.102223
  C      7.727805   -1.306448   -0.829152
  C      7.437920   -0.245398    0.075106
  C      8.556721    0.379305    0.685864
  C      9.883050   -0.010877    0.427530
  O      8.334688    1.392331    1.552517
  O      6.722571   -1.957098   -1.455563
  O     11.381196   -1.466272   -0.745899
  H     12.021795   -0.940238   -0.250231
  H      7.076589   -2.646052   -2.033341
  H      9.162044    1.743051    1.906967
  H     10.708341    0.497415    0.919235
  H    -10.537387    0.209794   -0.052958
  H      9.235541   -2.525114   -1.796347

 Multiplicity           Mult            ....    1
 Number of Electrons    NEL             ....  284
 Basis Dimension        Dim             .... 1317

ORBITAL ENERGIES
----------------

  NO   OCC          E(Eh)            E(eV)
   0   2.0000     -89.000621     -2421.8300
   1   2.0000     -88.995117     -2421.6802
   2   2.0000     -19.302830      -525.2567
   3   2.0000     -19.295674      -525.0620
   4   2.0000     -19.294990      -525.0434
   5   2.0000     -19.203540      -522.5549
   6   2.0000     -19.200665      -522.4766
   7   2.0000     -14.463297      -393.5663
   8   2.0000     -14.462882      -393.5550
   9   2.0000     -14.454668      -393.3315
  10   2.0000     -14.451434      -393.2435
  11   2.0000     -10.392787      -282.8021
  12   2.0000     -10.388716      -282.6913
  13   2.0000     -10.387718      -282.6642
  14   2.0000     -10.387015      -282.6451
  15   2.0000     -10.383921      -282.5609
  16   2.0000     -10.347528      -281.5706
  17   2.0000     -10.347265      -281.5634
  18   2.0000     -10.345873      -281.5255
  19   2.0000     -10.344626      -281.4916
  20   2.0000     -10.342189      -281.4253
  21   2.0000     -10.340599      -281.3820
  22   2.0000     -10.327722      -281.0316
  23   2.0000     -10.326793      -281.0063
  24   2.0000     -10.320119      -280.8247
  25   2.0000     -10.312449      -280.6160
  26   2.0000     -10.304924      -280.4112
  27   2.0000     -10.304770      -280.4070
  28   2.0000     -10.304443      -280.3981
  29   2.0000     -10.304013      -280.3865
  30   2.0000     -10.303692      -280.3777
  31   2.0000     -10.300948      -280.3031
  32   2.0000     -10.300109      -280.2802
  33   2.0000     -10.298987      -280.2497
  34   2.0000     -10.297460      -280.2081
  35   2.0000     -10.295760      -280.1619
  36   2.0000     -10.289115      -279.9810
  37   2.0000     -10.289090      -279.9804
  38   2.0000     -10.287521      -279.9377
  39   2.0000      -8.093630      -220.2389
  40   2.0000      -8.087430      -220.0701
  41   2.0000      -6.048251      -164.5813
  42   2.0000      -6.043214      -164.4442
  43   2.0000      -6.042437      -164.4231
  44   2.0000      -6.039370      -164.3396
  45   2.0000      -6.036748      -164.2683
  46   2.0000      -6.032996      -164.1662
  47   2.0000      -1.224356       -33.3164
  48   2.0000      -1.216692       -33.1079
  49   2.0000      -1.214270       -33.0420
  50   2.0000      -1.157459       -31.4960
  51   2.0000      -1.150007       -31.2933
  52   2.0000      -1.081106       -29.4184
  53   2.0000      -1.078435       -29.3457
  54   2.0000      -1.056119       -28.7385
  55   2.0000      -1.041738       -28.3471
  56   2.0000      -0.993781       -27.0422
  57   2.0000      -0.979225       -26.6461
  58   2.0000      -0.973976       -26.5032
  59   2.0000      -0.949082       -25.8258
  60   2.0000      -0.941442       -25.6179
  61   2.0000      -0.920804       -25.0564
  62   2.0000      -0.899578       -24.4788
  63   2.0000      -0.881796       -23.9949
  64   2.0000      -0.878734       -23.9116
  65   2.0000      -0.870061       -23.6756
  66   2.0000      -0.864441       -23.5226
  67   2.0000      -0.852010       -23.1844
  68   2.0000      -0.845920       -23.0187
  69   2.0000      -0.836356       -22.7584
  70   2.0000      -0.814178       -22.1549
  71   2.0000      -0.788650       -21.4603
  72   2.0000      -0.766230       -20.8502
  73   2.0000      -0.761790       -20.7294
  74   2.0000      -0.743034       -20.2190
  75   2.0000      -0.731399       -19.9024
  76   2.0000      -0.725071       -19.7302
  77   2.0000      -0.717675       -19.5289
  78   2.0000      -0.714092       -19.4314
  79   2.0000      -0.702868       -19.1260
  80   2.0000      -0.693786       -18.8789
  81   2.0000      -0.678454       -18.4617
  82   2.0000      -0.671710       -18.2782
  83   2.0000      -0.659394       -17.9430
  84   2.0000      -0.643766       -17.5178
  85   2.0000      -0.637201       -17.3391
  86   2.0000      -0.631915       -17.1953
  87   2.0000      -0.619336       -16.8530
  88   2.0000      -0.617655       -16.8072
  89   2.0000      -0.611775       -16.6472
  90   2.0000      -0.598243       -16.2790
  91   2.0000      -0.587601       -15.9894
  92   2.0000      -0.579422       -15.7669
  93   2.0000      -0.574462       -15.6319
  94   2.0000      -0.572858       -15.5883
  95   2.0000      -0.568177       -15.4609
  96   2.0000      -0.566175       -15.4064
  97   2.0000      -0.562870       -15.3165
  98   2.0000      -0.555705       -15.1215
  99   2.0000      -0.552213       -15.0265
 100   2.0000      -0.548848       -14.9349
 101   2.0000      -0.545764       -14.8510
 102   2.0000      -0.536367       -14.5953
 103   2.0000      -0.534830       -14.5535
 104   2.0000      -0.533091       -14.5061
 105   2.0000      -0.531286       -14.4570
 106   2.0000      -0.530596       -14.4383
 107   2.0000      -0.522961       -14.2305
 108   2.0000      -0.522525       -14.2186
 109   2.0000      -0.516328       -14.0500
 110   2.0000      -0.512008       -13.9324
 111   2.0000      -0.497625       -13.5411
 112   2.0000      -0.496921       -13.5219
 113   2.0000      -0.492875       -13.4118
 114   2.0000      -0.484658       -13.1882
 115   2.0000      -0.479662       -13.0523
 116   2.0000      -0.475600       -12.9417
 117   2.0000      -0.474063       -12.8999
 118   2.0000      -0.472833       -12.8664
 119   2.0000      -0.467205       -12.7133
 120   2.0000      -0.462035       -12.5726
 121   2.0000      -0.451309       -12.2807
 122   2.0000      -0.450148       -12.2492
 123   2.0000      -0.438341       -11.9279
 124   2.0000      -0.432802       -11.7771
 125   2.0000      -0.424037       -11.5386
 126   2.0000      -0.412737       -11.2312
 127   2.0000      -0.408484       -11.1154
 128   2.0000      -0.404690       -11.0122
 129   2.0000      -0.395401       -10.7594
 130   2.0000      -0.383192       -10.4272
 131   2.0000      -0.375868       -10.2279
 132   2.0000      -0.371539       -10.1101
 133   2.0000      -0.360024        -9.7968
 134   2.0000      -0.348008        -9.4698
 135   2.0000      -0.336067        -9.1448
 136   2.0000      -0.335519        -9.1299
 137   2.0000      -0.326059        -8.8725
 138   2.0000      -0.321850        -8.7580
 139   2.0000      -0.308120        -8.3844
 140   2.0000      -0.304471        -8.2851
 141   2.0000      -0.285185        -7.7603
 142   0.0000      -0.047086        -1.2813
 143   0.0000      -0.012847        -0.3496
 144   0.0000       0.011686         0.3180
 145   0.0000       0.029385         0.7996
 146   0.0000       0.043394         1.1808

MULLIKEN ATOMIC CHARGES
-----------------------
   0 C :   -0.242557
   1 C :   -0.157853
   2 C :   -0.063707
   3 C :   -0.250034
   4 C :    0.196284
   5 C :   -0.068934
   6 N :   -0.284071
   7 C :    0.253092
   8 C :    0.079256
   9 C :    0.053993
  10 C :    0.238609
  11 N :   -0.244119
  12 C :    0.169830
  13 C :   -0.035605
  14 C :   -0.229688
  15 C :   -0.141194
  16 C :   -0.152225
  17 C :   -0.087263
  18 O :   -0.313692
  19 O :   -0.312086
  20 H :    0.204586
  21 H :    0.125091
  22 H :    0.247023
  23 H :    0.268629
  24 H :    0.130397
  25 H :    0.204716
  26 H :    0.124445
  27 H :    0.125530
  28 N :   -0.284508
  29 C :    0.262100
  30 C :   -0.252203
  31 C :    0.072660
  32 S :    0.125328
  33 C :   -0.017505
  34 C :   -0.297741
  35 C :    0.366301
  36 N :   -0.359453
  37 S :    0.076269
  38 H :    0.154612
  39 H :    0.178785
  40 C :    0.252808
  41 C :   -0.327913
  42 C :    0.302616
  43 C :   -0.165762
  44 C :    0.274155
  45 C :   -0.321480
  46 O :   -0.420014
  47 O :   -0.419791
  48 O :   -0.401800
  49 H :    0.334495
  50 H :    0.337572
  51 H :    0.335288
  52 H :    0.109136
  53 H :    0.124665
  54 H :    0.122928
Sum of atomic charges:   -0.0000000

LOEWDIN ATOMIC CHARGES
----------------------
   0 C :   -0.095894
   1 C :   -0.157588
   2 C :   -0.125505
   3 C :   -0.127691
   4 C :   -0.142213
   5 C :   -0.090285
   6 N :    0.181023
   7 C :   -0.329341
   8 C :   -0.015344
   9 C :   -0.012101
  10 C :   -0.327233
  11 N :    0.196022
  12 C :   -0.086462
  13 C :   -0.088334
  14 C :   -0.088965
  15 C :   -0.155938
  16 C :   -0.080295
  17 C :   -0.093145
  18 O :    0.109442
  19 O :    0.107141
  20 H :    0.155774
  21 H :    0.145437
  22 H :    0.195554
  23 H :    0.198875
  24 H :    0.147446
  25 H :    0.156638
  26 H :    0.147009
  27 H :    0.151731
  28 N :   -0.070607
  29 C :   -0.300434
  30 C :   -0.169780
  31 C :   -0.312254
  32 S :    0.628077
  33 C :   -0.333264
  34 C :   -0.129128
  35 C :   -0.235624
  36 N :   -0.081532
  37 S :    0.613461
  38 H :    0.153587
  39 H :    0.146519
  40 C :   -0.268422
  41 C :   -0.141252
  42 C :   -0.210168
  43 C :   -0.119231
  44 C :   -0.227157
  45 C :   -0.166527
  46 O :    0.107124
  47 O :    0.110681
  48 O :    0.101987
  49 H :    0.195704
  50 H :    0.199334
  51 H :    0.198632
  52 H :    0.139539
  53 H :    0.146064
  54 H :    0.148913

  Mayer bond orders larger than 0.1
B(  0-C ,  1-C ) :   1.4731 B(  0-C ,  5-C ) :   1.3271 B(  0-C , 20-H ) :   0.9378
B(  1-C ,  2-C ) :   1.4027 B(  1-C , 21-H ) :   0.9809 B(  2-C ,  3-C ) :   1.4304
B(  2-C , 24-H ) :   0.9754 B(  3-C ,  4-C ) :   1.3509 B(  3-C , 53-H ) :   0.9694
B(  4-C ,  5-C ) :   1.3445 B(  4-C ,  6-N ) :   1.1225 B(  5-C ,  8-C ) :   0.9997
B(  6-N ,  7-C ) :   1.1459 B(  6-N , 22-H ) :   0.9004 B(  7-C ,  8-C ) :   0.9658
B(  7-C , 19-O ) :   2.1263 B(  8-C ,  9-C ) :   1.4911 B(  9-C , 10-C ) :   0.9574
B(  9-C , 13-C ) :   1.0203 B(  9-C , 18-O ) :  -0.1017 B( 10-C , 11-N ) :   1.1618
B( 10-C , 18-O ) :   2.1211 B( 11-N , 12-C ) :   1.1508 B( 11-N , 23-H ) :   0.8630
B( 12-C , 13-C ) :   1.3693 B( 12-C , 17-C ) :   1.2917 B( 13-C , 14-C ) :   1.3216
B( 14-C , 15-C ) :   1.4320 B( 14-C , 25-H ) :   0.9455 B( 15-C , 16-C ) :   1.4477
B( 15-C , 26-H ) :   0.9844 B( 16-C , 17-C ) :   1.3774 B( 16-C , 27-H ) :   0.9565
B( 17-C , 35-C ) :   1.0193 B( 28-N , 29-C ) :   1.7229 B( 28-N , 32-S ) :   1.0613
B( 29-C , 30-C ) :   1.1987 B( 29-C , 33-C ) :   0.9742 B( 29-C , 37-S ) :  -0.1145
B( 30-C , 31-C ) :   1.6500 B( 30-C , 39-H ) :   0.8588 B( 31-C , 32-S ) :   1.3237
B( 31-C , 43-C ) :   0.9793 B( 33-C , 34-C ) :   1.7093 B( 33-C , 37-S ) :   1.3220
B( 34-C , 35-C ) :   1.1568 B( 34-C , 38-H ) :   0.8996 B( 35-C , 36-N ) :   1.5633
B( 36-N , 37-S ) :   1.0606 B( 40-C , 41-C ) :   1.4419 B( 40-C , 45-C ) :   1.3845
B( 40-C , 48-O ) :   1.1363 B( 41-C , 42-C ) :   1.4066 B( 41-C , 54-H ) :   0.9429
B( 42-C , 43-C ) :   1.3312 B( 42-C , 47-O ) :   1.1035 B( 43-C , 44-C ) :   1.3260
B( 44-C , 45-C ) :   1.4271 B( 44-C , 46-O ) :   1.0673 B( 45-C , 52-H ) :   0.8946
B( 46-O , 51-H ) :   0.8655 B( 47-O , 50-H ) :   0.8681 B( 48-O , 49-H ) :   0.8744

Dispersion correction           -0.027172565
FINAL SINGLE POINT ENERGY     -2468.249410851752

DIPOLE MOMENT
-------------
                                X             Y             Z
Electronic contribution:      8.86733      -3.84626      -7.27223
Nuclear contribution   :     -5.61878       4.83376       9.09295
                        -----------------------------------------
Total Dipole Moment    :      3.24855       0.98751       1.82072
                        -----------------------------------------
Magnitude (a.u.)       :      3.85270
Magnitude (Debye)      :      9.79278

                             ****ORCA TERMINATED NORMALLY****
TOTAL RUN TIME: 0 days 0 hours 13 minutes 51 seconds 759 msec
