                         Program Version 4.0.0 -  RELEASE  -
|  1> #
|  2> !wB97X-D3 def2-TZVP def2/J RIJCOSX Grid5 FinalGrid6 TightSCF
|  3> %pal
|  4>  nprocs 24
|  5> end
|  6> %tddft
|  7>   Mode sTDDFT
|  8>   nroots 2
|  9>   Ethresh 10.0
| 10>   maxcore 5000
| 11>   triplets true
| 12> end
| 13> * xyz 0 1
| 14> C 8.62821636 2.47071437 2.42577004
| 15> C 7.85784947 1.61089210 1.64721873
| 16> C 8.48054367 0.86812431 0.62592118
| 17> C 9.87934722 1.03605249 0.42411815
| 18> C 10.65924728 1.89658571 1.21176785
| 19> C 10.01154545 2.61060721 2.21665468
| 20> C 8.02752110 -0.07963345 -0.38067360
| 21> C 9.18112980 -0.41788992 -1.14914576
| 22> N 10.28054716 0.24727867 -0.63995750
| 23> C 9.14110773 -1.27957880 -2.25510704
| 24> C 7.90132398 -1.80636451 -2.61126038
| 25> C 6.75029543 -1.49202103 -1.87844047
| 26> C 6.77763696 -0.64952921 -0.75007044
| 27> H 5.80289644 -1.93491491 -2.17723702
| 28> H 11.22148847 0.19167927 -1.00990331
| 29> H 7.82293068 -2.47252091 -3.46565681
| 30> H 6.79204879 1.51592795 1.83292365
| 31> H 11.72683109 2.00384342 1.03920712
| 32> H 10.58245092 3.28712985 2.84718413
| 33> H 8.15246527 3.04503629 3.21594022
| 34> S 0.63704817 -0.40041435 -0.28130086
| 35> C -0.61815648 -0.08935632 0.94206341
| 36> N -0.11395144 0.18057565 2.14007615
| 37> N 1.25053524 0.16327998 2.18492759
| 38> C 1.81360505 -0.12098078 1.01894278
| 39> C 3.24222016 -0.20132612 0.79594696
| 40> N 4.15893271 -0.00848223 1.73427124
| 41> N 5.43988280 -0.13769164 1.27451141
| 42> C 5.52961191 -0.42355790 -0.01466414
| 43> S 3.93100449 -0.57785748 -0.79277092
| 44> C -6.78349983 -1.59074343 1.85082021
| 45> C -7.13196012 -0.59900280 0.91295434
| 46> C -8.39852607 0.01162960 0.99798760
| 47> C -9.29031582 -0.36565137 1.99955475
| 48> C -8.93753379 -1.34416389 2.93202598
| 49> C -7.68201661 -1.95147279 2.85250252
| 50> N -6.22107250 -0.22336647 -0.11386548
| 51> C -6.72180099 0.11886809 -1.40083106
| 52> C -7.84679708 -0.54663860 -1.92624526
| 53> C -8.33889439 -0.20194545 -3.18310418
| 54> C -7.72060721 0.79813136 -3.93749250
| 55> C -6.60399540 1.46003987 -3.42117013
| 56> C -6.10624670 1.13205707 -2.16202035
| 57> C -4.83299534 -0.19123206 0.14232488
| 58> C -4.34407997 0.12024704 1.43124665
| 59> C -2.97943554 0.14878320 1.67961789
| 60> C -2.04712179 -0.12737169 0.65658509
| 61> C -2.53993851 -0.43552997 -0.62734310
| 62> C -3.90379325 -0.47027177 -0.88459876
| 63> H -5.04307172 0.35132379 2.22992736
| 64> H -2.61552667 0.39800516 2.67240221
| 65> H -1.84002669 -0.66196733 -1.42911692
| 66> H -4.25928299 -0.72581850 -1.87849125
| 67> H -8.32595571 -1.33250431 -1.34923783
| 68> H -9.20532867 -0.72439973 -3.58003474
| 69> H -8.10636248 1.06042681 -4.91822976
| 70> H -6.12304101 2.24540383 -3.99828725
| 71> H -5.24691737 1.66181685 -1.76061480
| 72> H -8.67482229 0.78098109 0.28251763
| 73> H -10.26348502 0.11470344 2.05800999
| 74> H -7.40359816 -2.71946095 3.56927637
| 75> H -5.81462647 -2.07790295 1.78630328
| 76> H 10.04010617 -1.51711631 -2.81682824
| 77> H -9.63518588 -1.63166450 3.71309780
| 78> *
| 79> $new_job
| 80> #
| 81> !wB97X-D3 def2-TZVP def2/J RIJCOSX Grid5 FinalGrid6 TightSCF
| 82> %pal
| 83>  nprocs 24
| 84> end
| 85> %elprop
| 86>    dipole     true
| 87>    quadrupole true
| 88> end
| 89> %tddft
| 90>   Mode sTDDFT
| 91>   nroots 2
| 92>   Ethresh 10.0
| 93>   maxcore 5000
| 94> end
| 95> * xyz 0 1
| 96> C 8.62821636 2.47071437 2.42577004
| 97> C 7.85784947 1.61089210 1.64721873
| 98> C 8.48054367 0.86812431 0.62592118
| 99> C 9.87934722 1.03605249 0.42411815
|100> C 10.65924728 1.89658571 1.21176785
|101> C 10.01154545 2.61060721 2.21665468
|102> C 8.02752110 -0.07963345 -0.38067360
|103> C 9.18112980 -0.41788992 -1.14914576
|104> N 10.28054716 0.24727867 -0.63995750
|105> C 9.14110773 -1.27957880 -2.25510704
|106> C 7.90132398 -1.80636451 -2.61126038
|107> C 6.75029543 -1.49202103 -1.87844047
|108> C 6.77763696 -0.64952921 -0.75007044
|109> H 5.80289644 -1.93491491 -2.17723702
|110> H 11.22148847 0.19167927 -1.00990331
|111> H 7.82293068 -2.47252091 -3.46565681
|112> H 6.79204879 1.51592795 1.83292365
|113> H 11.72683109 2.00384342 1.03920712
|114> H 10.58245092 3.28712985 2.84718413
|115> H 8.15246527 3.04503629 3.21594022
|116> S 0.63704817 -0.40041435 -0.28130086
|117> C -0.61815648 -0.08935632 0.94206341
|118> N -0.11395144 0.18057565 2.14007615
|119> N 1.25053524 0.16327998 2.18492759
|120> C 1.81360505 -0.12098078 1.01894278
|121> C 3.24222016 -0.20132612 0.79594696
|122> N 4.15893271 -0.00848223 1.73427124
|123> N 5.43988280 -0.13769164 1.27451141
|124> C 5.52961191 -0.42355790 -0.01466414
|125> S 3.93100449 -0.57785748 -0.79277092
|126> C -6.78349983 -1.59074343 1.85082021
|127> C -7.13196012 -0.59900280 0.91295434
|128> C -8.39852607 0.01162960 0.99798760
|129> C -9.29031582 -0.36565137 1.99955475
|130> C -8.93753379 -1.34416389 2.93202598
|131> C -7.68201661 -1.95147279 2.85250252
|132> N -6.22107250 -0.22336647 -0.11386548
|133> C -6.72180099 0.11886809 -1.40083106
|134> C -7.84679708 -0.54663860 -1.92624526
|135> C -8.33889439 -0.20194545 -3.18310418
|136> C -7.72060721 0.79813136 -3.93749250
|137> C -6.60399540 1.46003987 -3.42117013
|138> C -6.10624670 1.13205707 -2.16202035
|139> C -4.83299534 -0.19123206 0.14232488
|140> C -4.34407997 0.12024704 1.43124665
|141> C -2.97943554 0.14878320 1.67961789
|142> C -2.04712179 -0.12737169 0.65658509
|143> C -2.53993851 -0.43552997 -0.62734310
|144> C -3.90379325 -0.47027177 -0.88459876
|145> H -5.04307172 0.35132379 2.22992736
|146> H -2.61552667 0.39800516 2.67240221
|147> H -1.84002669 -0.66196733 -1.42911692
|148> H -4.25928299 -0.72581850 -1.87849125
|149> H -8.32595571 -1.33250431 -1.34923783
|150> H -9.20532867 -0.72439973 -3.58003474
|151> H -8.10636248 1.06042681 -4.91822976
|152> H -6.12304101 2.24540383 -3.99828725
|153> H -5.24691737 1.66181685 -1.76061480
|154> H -8.67482229 0.78098109 0.28251763
|155> H -10.26348502 0.11470344 2.05800999
|156> H -7.40359816 -2.71946095 3.56927637
|157> H -5.81462647 -2.07790295 1.78630328
|158> H 10.04010617 -1.51711631 -2.81682824
|159> H -9.63518588 -1.63166450 3.71309780
|160> *
|161>
|162>                          ****END OF INPUT****
 Total Charge           Charge          ....    0
 Multiplicity           Mult            ....    1
 Number of Electrons    NEL             ....  300
Dispersion correction           -0.030960770
FINAL SINGLE POINT ENERGY     -2433.844145140114

CARTESIAN COORDINATES (ANGSTROEM)
---------------------------------
  C      8.628216    2.470714    2.425770
  C      7.857849    1.610892    1.647219
  C      8.480544    0.868124    0.625921
  C      9.879347    1.036052    0.424118
  C     10.659247    1.896586    1.211768
  C     10.011545    2.610607    2.216655
  C      8.027521   -0.079633   -0.380674
  C      9.181130   -0.417890   -1.149146
  N     10.280547    0.247279   -0.639957
  C      9.141108   -1.279579   -2.255107
  C      7.901324   -1.806365   -2.611260
  C      6.750295   -1.492021   -1.878440
  C      6.777637   -0.649529   -0.750070
  H      5.802896   -1.934915   -2.177237
  H     11.221488    0.191679   -1.009903
  H      7.822931   -2.472521   -3.465657
  H      6.792049    1.515928    1.832924
  H     11.726831    2.003843    1.039207
  H     10.582451    3.287130    2.847184
  H      8.152465    3.045036    3.215940
  S      0.637048   -0.400414   -0.281301
  C     -0.618156   -0.089356    0.942063
  N     -0.113951    0.180576    2.140076
  N      1.250535    0.163280    2.184928
  C      1.813605   -0.120981    1.018943
  C      3.242220   -0.201326    0.795947
  N      4.158933   -0.008482    1.734271
  N      5.439883   -0.137692    1.274511
  C      5.529612   -0.423558   -0.014664
  S      3.931004   -0.577857   -0.792771
  C     -6.783500   -1.590743    1.850820
  C     -7.131960   -0.599003    0.912954
  C     -8.398526    0.011630    0.997988
  C     -9.290316   -0.365651    1.999555
  C     -8.937534   -1.344164    2.932026
  C     -7.682017   -1.951473    2.852503
  N     -6.221072   -0.223366   -0.113865
  C     -6.721801    0.118868   -1.400831
  C     -7.846797   -0.546639   -1.926245
  C     -8.338894   -0.201945   -3.183104
  C     -7.720607    0.798131   -3.937492
  C     -6.603995    1.460040   -3.421170
  C     -6.106247    1.132057   -2.162020
  C     -4.832995   -0.191232    0.142325
  C     -4.344080    0.120247    1.431247
  C     -2.979436    0.148783    1.679618
  C     -2.047122   -0.127372    0.656585
  C     -2.539939   -0.435530   -0.627343
  C     -3.903793   -0.470272   -0.884599
  H     -5.043072    0.351324    2.229927
  H     -2.615527    0.398005    2.672402
  H     -1.840027   -0.661967   -1.429117
  H     -4.259283   -0.725818   -1.878491
  H     -8.325956   -1.332504   -1.349238
  H     -9.205329   -0.724400   -3.580035
  H     -8.106362    1.060427   -4.918230
  H     -6.123041    2.245404   -3.998287
  H     -5.246917    1.661817   -1.760615
  H     -8.674822    0.780981    0.282518
  H    -10.263485    0.114703    2.058010
  H     -7.403598   -2.719461    3.569276
  H     -5.814626   -2.077903    1.786303
  H     10.040106   -1.517116   -2.816828
  H     -9.635186   -1.631665    3.713098

 Multiplicity           Mult            ....    1
 Number of Electrons    NEL             ....  300
 Basis Dimension        Dim             .... 1446

ORBITAL ENERGIES
----------------

  NO   OCC          E(Eh)            E(eV)
   0   2.0000     -89.007957     -2422.0297
   1   2.0000     -89.007824     -2422.0260
   2   2.0000     -14.473486      -393.8436
   3   2.0000     -14.470474      -393.7616
   4   2.0000     -14.467984      -393.6939
   5   2.0000     -14.467562      -393.6824
   6   2.0000     -14.463729      -393.5781
   7   2.0000     -14.461833      -393.5265
   8   2.0000     -10.377528      -282.3869
   9   2.0000     -10.375941      -282.3437
  10   2.0000     -10.375245      -282.3248
  11   2.0000     -10.374189      -282.2960
  12   2.0000     -10.349028      -281.6114
  13   2.0000     -10.339695      -281.3574
  14   2.0000     -10.338859      -281.3347
  15   2.0000     -10.334964      -281.2287
  16   2.0000     -10.325432      -280.9693
  17   2.0000     -10.321297      -280.8568
  18   2.0000     -10.313297      -280.6391
  19   2.0000     -10.308051      -280.4963
  20   2.0000     -10.305304      -280.4216
  21   2.0000     -10.301352      -280.3140
  22   2.0000     -10.299761      -280.2708
  23   2.0000     -10.297839      -280.2184
  24   2.0000     -10.296690      -280.1872
  25   2.0000     -10.295626      -280.1582
  26   2.0000     -10.295559      -280.1564
  27   2.0000     -10.294015      -280.1144
  28   2.0000     -10.293776      -280.1079
  29   2.0000     -10.292775      -280.0806
  30   2.0000     -10.292763      -280.0803
  31   2.0000     -10.292251      -280.0664
  32   2.0000     -10.291723      -280.0520
  33   2.0000     -10.291189      -280.0375
  34   2.0000     -10.290894      -280.0295
  35   2.0000     -10.288284      -279.9584
  36   2.0000     -10.288123      -279.9541
  37   2.0000     -10.287039      -279.9246
  38   2.0000     -10.283531      -279.8291
  39   2.0000     -10.282521      -279.8016
  40   2.0000     -10.276198      -279.6296
  41   2.0000     -10.269449      -279.4459
  42   2.0000      -8.104723      -220.5407
  43   2.0000      -8.104643      -220.5385
  44   2.0000      -6.057660      -164.8373
  45   2.0000      -6.057551      -164.8344
  46   2.0000      -6.053973      -164.7370
  47   2.0000      -6.053952      -164.7364
  48   2.0000      -6.051850      -164.6792
  49   2.0000      -6.051752      -164.6765
  50   2.0000      -1.153569       -31.3902
  51   2.0000      -1.144638       -31.1472
  52   2.0000      -1.107758       -30.1436
  53   2.0000      -1.102628       -30.0040
  54   2.0000      -1.000914       -27.2363
  55   2.0000      -0.991773       -26.9875
  56   2.0000      -0.985770       -26.8242
  57   2.0000      -0.976649       -26.5760
  58   2.0000      -0.969290       -26.3757
  59   2.0000      -0.962666       -26.1955
  60   2.0000      -0.941817       -25.6281
  61   2.0000      -0.938925       -25.5494
  62   2.0000      -0.913243       -24.8506
  63   2.0000      -0.901711       -24.5368
  64   2.0000      -0.890105       -24.2210
  65   2.0000      -0.887606       -24.1530
  66   2.0000      -0.875385       -23.8204
  67   2.0000      -0.875051       -23.8113
  68   2.0000      -0.870712       -23.6933
  69   2.0000      -0.869881       -23.6707
  70   2.0000      -0.846383       -23.0313
  71   2.0000      -0.840971       -22.8840
  72   2.0000      -0.837264       -22.7831
  73   2.0000      -0.786501       -21.4018
  74   2.0000      -0.768686       -20.9170
  75   2.0000      -0.764743       -20.8097
  76   2.0000      -0.751414       -20.4470
  77   2.0000      -0.731764       -19.9123
  78   2.0000      -0.729469       -19.8499
  79   2.0000      -0.725491       -19.7416
  80   2.0000      -0.721700       -19.6384
  81   2.0000      -0.720864       -19.6157
  82   2.0000      -0.712436       -19.3864
  83   2.0000      -0.703229       -19.1358
  84   2.0000      -0.688563       -18.7368
  85   2.0000      -0.685577       -18.6555
  86   2.0000      -0.660333       -17.9686
  87   2.0000      -0.653532       -17.7835
  88   2.0000      -0.650422       -17.6989
  89   2.0000      -0.640765       -17.4361
  90   2.0000      -0.625419       -17.0185
  91   2.0000      -0.616468       -16.7749
  92   2.0000      -0.610742       -16.6191
  93   2.0000      -0.599832       -16.3223
  94   2.0000      -0.595138       -16.1945
  95   2.0000      -0.583823       -15.8866
  96   2.0000      -0.577668       -15.7191
  97   2.0000      -0.571620       -15.5546
  98   2.0000      -0.569334       -15.4924
  99   2.0000      -0.567378       -15.4391
 100   2.0000      -0.562479       -15.3058
 101   2.0000      -0.561102       -15.2684
 102   2.0000      -0.553601       -15.0642
 103   2.0000      -0.551054       -14.9949
 104   2.0000      -0.545467       -14.8429
 105   2.0000      -0.541733       -14.7413
 106   2.0000      -0.541355       -14.7310
 107   2.0000      -0.538581       -14.6555
 108   2.0000      -0.535328       -14.5670
 109   2.0000      -0.533224       -14.5098
 110   2.0000      -0.531562       -14.4645
 111   2.0000      -0.530306       -14.4304
 112   2.0000      -0.528171       -14.3723
 113   2.0000      -0.523872       -14.2553
 114   2.0000      -0.520849       -14.1730
 115   2.0000      -0.515384       -14.0243
 116   2.0000      -0.499174       -13.5832
 117   2.0000      -0.491499       -13.3744
 118   2.0000      -0.489620       -13.3232
 119   2.0000      -0.484509       -13.1842
 120   2.0000      -0.477764       -13.0006
 121   2.0000      -0.472138       -12.8475
 122   2.0000      -0.468340       -12.7442
 123   2.0000      -0.466928       -12.7058
 124   2.0000      -0.462912       -12.5965
 125   2.0000      -0.458619       -12.4797
 126   2.0000      -0.446950       -12.1621
 127   2.0000      -0.446611       -12.1529
 128   2.0000      -0.445382       -12.1195
 129   2.0000      -0.445243       -12.1157
 130   2.0000      -0.436654       -11.8820
 131   2.0000      -0.432646       -11.7729
 132   2.0000      -0.415907       -11.3174
 133   2.0000      -0.407179       -11.0799
 134   2.0000      -0.404083       -10.9957
 135   2.0000      -0.400106       -10.8874
 136   2.0000      -0.394075       -10.7233
 137   2.0000      -0.383649       -10.4396
 138   2.0000      -0.376066       -10.2333
 139   2.0000      -0.369377       -10.0513
 140   2.0000      -0.363573        -9.8933
 141   2.0000      -0.358441        -9.7537
 142   2.0000      -0.357748        -9.7348
 143   2.0000      -0.350591        -9.5401
 144   2.0000      -0.348533        -9.4841
 145   2.0000      -0.344177        -9.3655
 146   2.0000      -0.324276        -8.8240
 147   2.0000      -0.300290        -8.1713
 148   2.0000      -0.290366        -7.9013
 149   2.0000      -0.271740        -7.3944
 150   0.0000      -0.034369        -0.9352
 151   0.0000       0.003252         0.0885
 152   0.0000       0.026028         0.7083
 153   0.0000       0.034185         0.9302
 154   0.0000       0.034618         0.9420

MULLIKEN ATOMIC CHARGES
-----------------------
   0 C :   -0.177773
   1 C :   -0.132729
   2 C :   -0.029272
   3 C :    0.169093
   4 C :   -0.238840
   5 C :   -0.072621
   6 C :   -0.026132
   7 C :    0.187684
   8 N :   -0.304781
   9 C :   -0.225231
  10 C :   -0.097924
  11 C :   -0.276647
  12 C :    0.123717
  13 H :    0.125808
  14 H :    0.237286
  15 H :    0.126082
  16 H :    0.162002
  17 H :    0.112748
  18 H :    0.122539
  19 H :    0.121506
  20 S :   -0.018548
  21 C :    0.247398
  22 N :   -0.117178
  23 N :   -0.149559
  24 C :    0.089083
  25 C :    0.114553
  26 N :   -0.128949
  27 N :   -0.178033
  28 C :    0.180419
  29 S :   -0.005474
  30 C :   -0.314028
  31 C :    0.208357
  32 C :   -0.303280
  33 C :   -0.070452
  34 C :   -0.159858
  35 C :   -0.069716
  36 N :    0.059294
  37 C :    0.210500
  38 C :   -0.303316
  39 C :   -0.069008
  40 C :   -0.162519
  41 C :   -0.069485
  42 C :   -0.314104
  43 C :    0.206273
  44 C :   -0.279869
  45 C :   -0.155742
  46 C :   -0.065320
  47 C :   -0.131694
  48 C :   -0.319997
  49 H :    0.168056
  50 H :    0.163599
  51 H :    0.130005
  52 H :    0.166516
  53 H :    0.162740
  54 H :    0.128299
  55 H :    0.125724
  56 H :    0.128672
  57 H :    0.162168
  58 H :    0.161924
  59 H :    0.128132
  60 H :    0.129846
  61 H :    0.162300
  62 H :    0.120177
  63 H :    0.125580
Sum of atomic charges:   -0.0000000

LOEWDIN ATOMIC CHARGES
----------------------
   0 C :   -0.156355
   1 C :   -0.090184
   2 C :   -0.078118
   3 C :   -0.144529
   4 C :   -0.136666
   5 C :   -0.138378
   6 C :   -0.027695
   7 C :   -0.143089
   8 N :    0.201552
   9 C :   -0.118062
  10 C :   -0.142501
  11 C :   -0.125092
  12 C :   -0.116492
  13 H :    0.144181
  14 H :    0.193535
  15 H :    0.147555
  16 H :    0.155078
  17 H :    0.142415
  18 H :    0.144638
  19 H :    0.144903
  20 S :    0.687393
  21 C :   -0.386423
  22 N :    0.045787
  23 N :    0.074762
  24 C :   -0.459647
  25 C :   -0.458246
  26 N :    0.070769
  27 N :    0.054968
  28 C :   -0.373409
  29 S :    0.696034
  30 C :   -0.116150
  31 C :   -0.164439
  32 C :   -0.114049
  33 C :   -0.138975
  34 C :   -0.149451
  35 C :   -0.138681
  36 N :    0.279391
  37 C :   -0.164182
  38 C :   -0.113843
  39 C :   -0.139176
  40 C :   -0.150266
  41 C :   -0.139892
  42 C :   -0.116860
  43 C :   -0.151822
  44 C :   -0.109377
  45 C :   -0.073926
  46 C :   -0.165743
  47 C :   -0.103814
  48 C :   -0.113437
  49 H :    0.160401
  50 H :    0.160830
  51 H :    0.146738
  52 H :    0.159458
  53 H :    0.157014
  54 H :    0.146856
  55 H :    0.144086
  56 H :    0.146862
  57 H :    0.156327
  58 H :    0.156783
  59 H :    0.146847
  60 H :    0.147296
  61 H :    0.156527
  62 H :    0.145732
  63 H :    0.144251

  Mayer bond orders larger than 0.1
B(  0-C ,  1-C ) :   1.5372 B(  0-C ,  5-C ) :   1.3510 B(  0-C , 19-H ) :   0.9865
B(  1-C ,  2-C ) :   1.2683 B(  1-C , 16-H ) :   0.9332 B(  2-C ,  3-C ) :   1.3569
B(  2-C ,  6-C ) :   1.0904 B(  3-C ,  4-C ) :   1.3059 B(  3-C ,  8-N ) :   1.1111
B(  4-C ,  5-C ) :   1.4850 B(  4-C , 17-H ) :   0.9762 B(  5-C , 18-H ) :   0.9797
B(  6-C ,  7-C ) :   1.3184 B(  6-C , 12-C ) :   1.2468 B(  7-C ,  8-N ) :   1.1565
B(  7-C ,  9-C ) :   1.2888 B(  8-N , 14-H ) :   0.9136 B(  9-C , 10-C ) :   1.4665
B(  9-C , 62-H ) :   0.9743 B( 10-C , 11-C ) :   1.4207 B( 10-C , 15-H ) :   0.9811
B( 11-C , 12-C ) :   1.4060 B( 11-C , 13-H ) :   0.9607 B( 12-C , 28-C ) :   0.9396
B( 20-S , 21-C ) :   1.2641 B( 20-S , 24-C ) :   1.2619 B( 21-C , 22-N ) :   1.6921
B( 21-C , 46-C ) :   0.9855 B( 22-N , 23-N ) :   1.1260 B( 23-N , 24-C ) :   1.7232
B( 24-C , 25-C ) :   1.0061 B( 25-C , 26-N ) :   1.7119 B( 25-C , 29-S ) :   1.2678
B( 26-N , 27-N ) :   1.0900 B( 27-N , 28-C ) :   1.6513 B( 28-C , 29-S ) :   1.2654
B( 30-C , 31-C ) :   1.3434 B( 30-C , 35-C ) :   1.4341 B( 30-C , 61-H ) :   0.9709
B( 31-C , 32-C ) :   1.3574 B( 31-C , 36-N ) :   1.0132 B( 32-C , 33-C ) :   1.4347
B( 32-C , 58-H ) :   0.9683 B( 33-C , 34-C ) :   1.3972 B( 33-C , 59-H ) :   0.9788
B( 34-C , 35-C ) :   1.4004 B( 34-C , 63-H ) :   0.9812 B( 35-C , 60-H ) :   0.9781
B( 36-N , 37-C ) :   1.0149 B( 36-N , 43-C ) :   1.0816 B( 37-C , 38-C ) :   1.3558
B( 37-C , 42-C ) :   1.3410 B( 38-C , 39-C ) :   1.4330 B( 38-C , 53-H ) :   0.9690
B( 39-C , 40-C ) :   1.3970 B( 39-C , 54-H ) :   0.9794 B( 40-C , 41-C ) :   1.3996
B( 40-C , 55-H ) :   0.9810 B( 41-C , 42-C ) :   1.4294 B( 41-C , 56-H ) :   0.9799
B( 42-C , 57-H ) :   0.9719 B( 43-C , 44-C ) :   1.3167 B( 43-C , 48-C ) :   1.3402
B( 44-C , 45-C ) :   1.4639 B( 44-C , 49-H ) :   0.9786 B( 45-C , 46-C ) :   1.4048
B( 45-C , 50-H ) :   0.9593 B( 46-C , 47-C ) :   1.3182 B( 47-C , 48-C ) :   1.5127
B( 47-C , 51-H ) :   0.9547 B( 48-C , 52-H ) :   0.9710

Dispersion correction           -0.030960770
FINAL SINGLE POINT ENERGY     -2433.844145087169

DIPOLE MOMENT
-------------
                                X             Y             Z
Electronic contribution:     31.09809      -2.32319       2.40721
Nuclear contribution   :    -31.52126       1.85380      -4.89726
                        -----------------------------------------
Total Dipole Moment    :     -0.42317      -0.46939      -2.49005
                        -----------------------------------------
Magnitude (a.u.)       :      2.56900
Magnitude (Debye)      :      6.52988

                             ****ORCA TERMINATED NORMALLY****
TOTAL RUN TIME: 0 days 0 hours 16 minutes 17 seconds 276 msec
