                         Program Version 4.0.0 -  RELEASE  -
|  1> #
|  2> !wB97X-D3 def2-TZVP def2/J RIJCOSX Grid5 FinalGrid6 TightSCF
|  3> %pal
|  4>  nprocs 24
|  5> end
|  6> %tddft
|  7>   Mode sTDDFT
|  8>   nroots 2
|  9>   Ethresh 10.0
| 10>   maxcore 5000
| 11>   triplets true
| 12> end
| 13> * xyz 0 1
| 14> C -4.67613227 3.21731945 1.39024791
| 15> C -3.89165754 2.23202877 0.84334930
| 16> C -4.46725451 0.97550074 0.46719685
| 17> C -5.88144724 0.76705687 0.66427697
| 18> C -6.66244974 1.82234721 1.23840802
| 19> C -6.07061609 3.01020138 1.59006028
| 20> N -3.67924907 0.00855459 -0.06416777
| 21> C -4.26278076 -1.16612075 -0.39770302
| 22> C -5.68709320 -1.36104712 -0.22698834
| 23> N -6.47730445 -0.39605220 0.30562549
| 24> C -6.27853292 -2.59831337 -0.63804952
| 25> C -5.49812613 -3.58303997 -1.19309830
| 26> C -4.10046477 -3.40230326 -1.35306951
| 27> C -3.46411174 -2.23428215 -0.96382078
| 28> H -3.51464475 -4.21571252 -1.77446721
| 29> H -5.94536141 -4.52265042 -1.50742743
| 30> H -7.34755582 -2.74194021 -0.50623747
| 31> H -6.66553356 3.80899307 2.02581283
| 32> H -2.82650635 2.38967213 0.69248147
| 33> H -4.23701733 4.16935854 1.67754726
| 34> S 1.07667959 0.26901716 1.45964806
| 35> C 1.30336837 -0.73185773 0.02756807
| 36> C 2.63784852 -0.77430540 -0.32235930
| 37> C 3.49123368 -0.00052879 0.53490314
| 38> C 2.78224483 0.62029985 1.54750689
| 39> C 0.18755476 -1.37782035 -0.62896001
| 40> C -1.14430201 -1.33860558 -0.26823928
| 41> C -2.00271495 -2.09674895 -1.13241519
| 42> C -1.29745188 -2.71833478 -2.14825733
| 43> S 0.40774043 -2.36645242 -2.07157542
| 44> H -1.49702877 -0.79716243 0.60268609
| 45> H 2.99575336 -1.32317180 -1.18792759
| 46> H -1.71103150 -3.32559070 -2.94366382
| 47> H 3.18888952 1.23394808 2.34036329
| 48> C 5.83148968 3.35979804 1.63758515
| 49> N 5.07671836 2.32831372 1.27655111
| 50> C 5.71538181 1.22847875 0.75855222
| 51> C 7.13865965 1.23469371 0.58814741
| 52> N 7.89539087 2.31576787 0.97570091
| 53> C 7.24620655 3.34882020 1.49802020
| 54> C 7.78413376 0.10766802 0.00735718
| 55> C 7.03562096 -0.97938078 -0.39331221
| 56> C 5.63530366 -0.99444715 -0.22179270
| 57> C 4.95557845 0.07521260 0.35401812
| 58> H 5.08015876 -1.87661197 -0.53004068
| 59> H 7.52275016 -1.84258472 -0.83947883
| 60> H 7.83926100 4.21617245 1.81344002
| 61> H 5.32264820 4.24185192 2.04593023
| 62> H -7.72763586 1.66706411 1.39053212
| 63> H 8.86368965 0.11672627 -0.11566489
| 64> *
| 65> $new_job
| 66> #
| 67> !wB97X-D3 def2-TZVP def2/J RIJCOSX Grid5 FinalGrid6 TightSCF
| 68> %pal
| 69>  nprocs 24
| 70> end
| 71> %elprop
| 72>    dipole     true
| 73>    quadrupole true
| 74> end
| 75> %tddft
| 76>   Mode sTDDFT
| 77>   nroots 2
| 78>   Ethresh 10.0
| 79>   maxcore 5000
| 80> end
| 81> * xyz 0 1
| 82> C -4.67613227 3.21731945 1.39024791
| 83> C -3.89165754 2.23202877 0.84334930
| 84> C -4.46725451 0.97550074 0.46719685
| 85> C -5.88144724 0.76705687 0.66427697
| 86> C -6.66244974 1.82234721 1.23840802
| 87> C -6.07061609 3.01020138 1.59006028
| 88> N -3.67924907 0.00855459 -0.06416777
| 89> C -4.26278076 -1.16612075 -0.39770302
| 90> C -5.68709320 -1.36104712 -0.22698834
| 91> N -6.47730445 -0.39605220 0.30562549
| 92> C -6.27853292 -2.59831337 -0.63804952
| 93> C -5.49812613 -3.58303997 -1.19309830
| 94> C -4.10046477 -3.40230326 -1.35306951
| 95> C -3.46411174 -2.23428215 -0.96382078
| 96> H -3.51464475 -4.21571252 -1.77446721
| 97> H -5.94536141 -4.52265042 -1.50742743
| 98> H -7.34755582 -2.74194021 -0.50623747
| 99> H -6.66553356 3.80899307 2.02581283
|100> H -2.82650635 2.38967213 0.69248147
|101> H -4.23701733 4.16935854 1.67754726
|102> S 1.07667959 0.26901716 1.45964806
|103> C 1.30336837 -0.73185773 0.02756807
|104> C 2.63784852 -0.77430540 -0.32235930
|105> C 3.49123368 -0.00052879 0.53490314
|106> C 2.78224483 0.62029985 1.54750689
|107> C 0.18755476 -1.37782035 -0.62896001
|108> C -1.14430201 -1.33860558 -0.26823928
|109> C -2.00271495 -2.09674895 -1.13241519
|110> C -1.29745188 -2.71833478 -2.14825733
|111> S 0.40774043 -2.36645242 -2.07157542
|112> H -1.49702877 -0.79716243 0.60268609
|113> H 2.99575336 -1.32317180 -1.18792759
|114> H -1.71103150 -3.32559070 -2.94366382
|115> H 3.18888952 1.23394808 2.34036329
|116> C 5.83148968 3.35979804 1.63758515
|117> N 5.07671836 2.32831372 1.27655111
|118> C 5.71538181 1.22847875 0.75855222
|119> C 7.13865965 1.23469371 0.58814741
|120> N 7.89539087 2.31576787 0.97570091
|121> C 7.24620655 3.34882020 1.49802020
|122> C 7.78413376 0.10766802 0.00735718
|123> C 7.03562096 -0.97938078 -0.39331221
|124> C 5.63530366 -0.99444715 -0.22179270
|125> C 4.95557845 0.07521260 0.35401812
|126> H 5.08015876 -1.87661197 -0.53004068
|127> H 7.52275016 -1.84258472 -0.83947883
|128> H 7.83926100 4.21617245 1.81344002
|129> H 5.32264820 4.24185192 2.04593023
|130> H -7.72763586 1.66706411 1.39053212
|131> H 8.86368965 0.11672627 -0.11566489
|132> *
|133>
|134>                          ****END OF INPUT****
 Total Charge           Charge          ....    0
 Multiplicity           Mult            ....    1
 Number of Electrons    NEL             ....  244
Dispersion correction           -0.023297873
FINAL SINGLE POINT ENERGY     -2092.082930344387

CARTESIAN COORDINATES (ANGSTROEM)
---------------------------------
  C     -4.676132    3.217319    1.390248
  C     -3.891658    2.232029    0.843349
  C     -4.467255    0.975501    0.467197
  C     -5.881447    0.767057    0.664277
  C     -6.662450    1.822347    1.238408
  C     -6.070616    3.010201    1.590060
  N     -3.679249    0.008555   -0.064168
  C     -4.262781   -1.166121   -0.397703
  C     -5.687093   -1.361047   -0.226988
  N     -6.477304   -0.396052    0.305625
  C     -6.278533   -2.598313   -0.638050
  C     -5.498126   -3.583040   -1.193098
  C     -4.100465   -3.402303   -1.353070
  C     -3.464112   -2.234282   -0.963821
  H     -3.514645   -4.215713   -1.774467
  H     -5.945361   -4.522650   -1.507427
  H     -7.347556   -2.741940   -0.506237
  H     -6.665534    3.808993    2.025813
  H     -2.826506    2.389672    0.692481
  H     -4.237017    4.169359    1.677547
  S      1.076680    0.269017    1.459648
  C      1.303368   -0.731858    0.027568
  C      2.637849   -0.774305   -0.322359
  C      3.491234   -0.000529    0.534903
  C      2.782245    0.620300    1.547507
  C      0.187555   -1.377820   -0.628960
  C     -1.144302   -1.338606   -0.268239
  C     -2.002715   -2.096749   -1.132415
  C     -1.297452   -2.718335   -2.148257
  S      0.407740   -2.366452   -2.071575
  H     -1.497029   -0.797162    0.602686
  H      2.995753   -1.323172   -1.187928
  H     -1.711032   -3.325591   -2.943664
  H      3.188890    1.233948    2.340363
  C      5.831490    3.359798    1.637585
  N      5.076718    2.328314    1.276551
  C      5.715382    1.228479    0.758552
  C      7.138660    1.234694    0.588147
  N      7.895391    2.315768    0.975701
  C      7.246207    3.348820    1.498020
  C      7.784134    0.107668    0.007357
  C      7.035621   -0.979381   -0.393312
  C      5.635304   -0.994447   -0.221793
  C      4.955578    0.075213    0.354018
  H      5.080159   -1.876612   -0.530041
  H      7.522750   -1.842585   -0.839479
  H      7.839261    4.216172    1.813440
  H      5.322648    4.241852    2.045930
  H     -7.727636    1.667064    1.390532
  H      8.863690    0.116726   -0.115665

 Multiplicity           Mult            ....    1
 Number of Electrons    NEL             ....  244
 Basis Dimension        Dim             .... 1162

ORBITAL ENERGIES
----------------

  NO   OCC          E(Eh)            E(eV)
   0   2.0000     -88.981877     -2421.3200
   1   2.0000     -88.979900     -2421.2662
   2   2.0000     -14.448966      -393.1764
   3   2.0000     -14.448767      -393.1709
   4   2.0000     -14.445122      -393.0718
   5   2.0000     -14.444691      -393.0600
   6   2.0000     -10.340490      -281.3790
   7   2.0000     -10.337876      -281.3079
   8   2.0000     -10.337541      -281.2988
   9   2.0000     -10.337518      -281.2982
  10   2.0000     -10.337268      -281.2914
  11   2.0000     -10.336717      -281.2764
  12   2.0000     -10.336610      -281.2735
  13   2.0000     -10.335604      -281.2461
  14   2.0000     -10.326492      -280.9981
  15   2.0000     -10.325334      -280.9666
  16   2.0000     -10.314501      -280.6718
  17   2.0000     -10.314422      -280.6697
  18   2.0000     -10.314006      -280.6584
  19   2.0000     -10.309725      -280.5419
  20   2.0000     -10.302596      -280.3479
  21   2.0000     -10.301315      -280.3130
  22   2.0000     -10.301033      -280.3054
  23   2.0000     -10.300848      -280.3003
  24   2.0000     -10.300387      -280.2878
  25   2.0000     -10.299845      -280.2730
  26   2.0000     -10.299558      -280.2652
  27   2.0000     -10.298705      -280.2420
  28   2.0000     -10.297132      -280.1992
  29   2.0000     -10.297104      -280.1984
  30   2.0000     -10.295519      -280.1553
  31   2.0000     -10.295081      -280.1434
  32   2.0000     -10.288972      -279.9772
  33   2.0000     -10.285120      -279.8723
  34   2.0000      -8.078217      -219.8195
  35   2.0000      -8.076249      -219.7659
  36   2.0000      -6.031510      -164.1257
  37   2.0000      -6.029544      -164.0722
  38   2.0000      -6.027412      -164.0142
  39   2.0000      -6.025386      -163.9591
  40   2.0000      -6.025277      -163.9561
  41   2.0000      -6.023354      -163.9038
  42   2.0000      -1.102087       -29.9893
  43   2.0000      -1.100152       -29.9367
  44   2.0000      -1.030453       -28.0401
  45   2.0000      -1.030139       -28.0315
  46   2.0000      -1.012764       -27.5587
  47   2.0000      -0.998000       -27.1570
  48   2.0000      -0.987157       -26.8619
  49   2.0000      -0.976041       -26.5594
  50   2.0000      -0.960474       -26.1358
  51   2.0000      -0.908937       -24.7334
  52   2.0000      -0.897562       -24.4239
  53   2.0000      -0.887248       -24.1433
  54   2.0000      -0.880111       -23.9490
  55   2.0000      -0.874131       -23.7863
  56   2.0000      -0.862255       -23.4632
  57   2.0000      -0.847913       -23.0729
  58   2.0000      -0.832837       -22.6626
  59   2.0000      -0.809877       -22.0379
  60   2.0000      -0.800317       -21.7777
  61   2.0000      -0.788440       -21.4545
  62   2.0000      -0.766173       -20.8486
  63   2.0000      -0.761435       -20.7197
  64   2.0000      -0.730015       -19.8647
  65   2.0000      -0.728437       -19.8218
  66   2.0000      -0.719510       -19.5789
  67   2.0000      -0.706350       -19.2208
  68   2.0000      -0.679651       -18.4942
  69   2.0000      -0.669937       -18.2299
  70   2.0000      -0.663364       -18.0511
  71   2.0000      -0.653642       -17.7865
  72   2.0000      -0.649298       -17.6683
  73   2.0000      -0.638578       -17.3766
  74   2.0000      -0.632930       -17.2229
  75   2.0000      -0.617433       -16.8012
  76   2.0000      -0.611746       -16.6465
  77   2.0000      -0.601663       -16.3721
  78   2.0000      -0.590530       -16.0691
  79   2.0000      -0.582339       -15.8463
  80   2.0000      -0.576726       -15.6935
  81   2.0000      -0.571457       -15.5501
  82   2.0000      -0.561030       -15.2664
  83   2.0000      -0.552795       -15.0423
  84   2.0000      -0.547495       -14.8981
  85   2.0000      -0.544562       -14.8183
  86   2.0000      -0.541429       -14.7330
  87   2.0000      -0.538994       -14.6668
  88   2.0000      -0.536245       -14.5920
  89   2.0000      -0.515940       -14.0394
  90   2.0000      -0.512599       -13.9485
  91   2.0000      -0.510710       -13.8971
  92   2.0000      -0.500623       -13.6227
  93   2.0000      -0.495937       -13.4951
  94   2.0000      -0.492484       -13.4012
  95   2.0000      -0.486345       -13.2341
  96   2.0000      -0.481315       -13.0972
  97   2.0000      -0.478475       -13.0200
  98   2.0000      -0.476134       -12.9563
  99   2.0000      -0.468235       -12.7413
 100   2.0000      -0.460739       -12.5374
 101   2.0000      -0.459437       -12.5019
 102   2.0000      -0.457231       -12.4419
 103   2.0000      -0.454505       -12.3677
 104   2.0000      -0.449913       -12.2428
 105   2.0000      -0.443928       -12.0799
 106   2.0000      -0.439912       -11.9706
 107   2.0000      -0.428869       -11.6701
 108   2.0000      -0.426129       -11.5956
 109   2.0000      -0.416271       -11.3273
 110   2.0000      -0.411316       -11.1925
 111   2.0000      -0.383624       -10.4389
 112   2.0000      -0.368487       -10.0270
 113   2.0000      -0.355969        -9.6864
 114   2.0000      -0.350231        -9.5303
 115   2.0000      -0.349500        -9.5104
 116   2.0000      -0.348300        -9.4777
 117   2.0000      -0.338580        -9.2132
 118   2.0000      -0.335843        -9.1388
 119   2.0000      -0.315382        -8.5820
 120   2.0000      -0.299476        -8.1492
 121   2.0000      -0.276734        -7.5303
 122   0.0000      -0.041548        -1.1306
 123   0.0000      -0.018776        -0.5109
 124   0.0000       0.012415         0.3378
 125   0.0000       0.031078         0.8457
 126   0.0000       0.034189         0.9303

MULLIKEN ATOMIC CHARGES
-----------------------
   0 C :   -0.068540
   1 C :   -0.286052
   2 C :    0.207628
   3 C :    0.192461
   4 C :   -0.259317
   5 C :   -0.068290
   6 N :   -0.306745
   7 C :    0.196204
   8 C :    0.184553
   9 N :   -0.245877
  10 C :   -0.261679
  11 C :   -0.080665
  12 C :   -0.170434
  13 C :    0.000769
  14 H :    0.135339
  15 H :    0.128874
  16 H :    0.129571
  17 H :    0.132042
  18 H :    0.140377
  19 H :    0.133380
  20 S :    0.049473
  21 C :    0.021564
  22 C :   -0.261673
  23 C :    0.129480
  24 C :   -0.207179
  25 C :    0.061461
  26 C :   -0.251414
  27 C :    0.115569
  28 C :   -0.249950
  29 S :    0.045908
  30 H :    0.167719
  31 H :    0.158805
  32 H :    0.158671
  33 H :    0.168505
  34 C :   -0.022263
  35 N :   -0.306107
  36 C :    0.166740
  37 C :    0.147628
  38 N :   -0.242722
  39 C :   -0.002131
  40 C :   -0.230017
  41 C :   -0.087918
  42 C :   -0.174436
  43 C :    0.007355
  44 H :    0.136454
  45 H :    0.128986
  46 H :    0.138846
  47 H :    0.135888
  48 H :    0.131916
  49 H :    0.131249
Sum of atomic charges:   -0.0000000

LOEWDIN ATOMIC CHARGES
----------------------
   0 C :   -0.131719
   1 C :   -0.097726
   2 C :   -0.166182
   3 C :   -0.167027
   4 C :   -0.098008
   5 C :   -0.131872
   6 N :    0.209274
   7 C :   -0.123728
   8 C :   -0.164663
   9 N :    0.200488
  10 C :   -0.100741
  11 C :   -0.132041
  12 C :   -0.091917
  13 C :   -0.065509
  14 H :    0.151981
  15 H :    0.148968
  16 H :    0.152894
  17 H :    0.148081
  18 H :    0.154169
  19 H :    0.148272
  20 S :    0.715496
  21 C :   -0.351913
  22 C :   -0.136415
  23 C :   -0.164856
  24 C :   -0.334014
  25 C :   -0.352465
  26 C :   -0.124872
  27 C :   -0.158890
  28 C :   -0.348623
  29 S :    0.707313
  30 H :    0.150619
  31 H :    0.145398
  32 H :    0.131872
  33 H :    0.136124
  34 C :   -0.205606
  35 N :    0.174094
  36 C :   -0.125502
  37 C :   -0.166931
  38 N :    0.168779
  39 C :   -0.204823
  40 C :   -0.101040
  41 C :   -0.131015
  42 C :   -0.092348
  43 C :   -0.064572
  44 H :    0.152669
  45 H :    0.148979
  46 H :    0.142027
  47 H :    0.141733
  48 H :    0.153107
  49 H :    0.152680

  Mayer bond orders larger than 0.1
B(  0-C ,  1-C ) :   1.6094 B(  0-C ,  5-C ) :   1.1883 B(  0-C , 19-H ) :   0.9808
B(  1-C ,  2-C ) :   1.1787 B(  1-C , 18-H ) :   0.9730 B(  2-C ,  3-C ) :   1.1590
B(  2-C ,  6-N ) :   1.4121 B(  3-C ,  4-C ) :   1.1958 B(  3-C ,  9-N ) :   1.4094
B(  4-C ,  5-C ) :   1.6187 B(  4-C , 48-H ) :   0.9771 B(  5-C , 17-H ) :   0.9820
B(  6-N ,  7-C ) :   1.3596 B(  7-C ,  8-C ) :   1.1900 B(  7-C , 13-C ) :   1.1240
B(  8-C ,  9-N ) :   1.4248 B(  8-C , 10-C ) :   1.1926 B( 10-C , 11-C ) :   1.5917
B( 10-C , 16-H ) :   0.9837 B( 11-C , 12-C ) :   1.2308 B( 11-C , 15-H ) :   0.9882
B( 12-C , 13-C ) :   1.5703 B( 12-C , 14-H ) :   0.9583 B( 13-C , 27-C ) :   0.8964
B( 20-S , 21-C ) :   1.2712 B( 20-S , 24-C ) :   1.2956 B( 21-C , 22-C ) :   1.6028
B( 21-C , 25-C ) :   0.9393 B( 22-C , 23-C ) :   1.2660 B( 22-C , 31-H ) :   0.8832
B( 23-C , 24-C ) :   1.6397 B( 23-C , 43-C ) :   0.8888 B( 24-C , 33-H ) :   0.9230
B( 25-C , 26-C ) :   1.5724 B( 25-C , 29-S ) :   1.2497 B( 26-C , 27-C ) :   1.2561
B( 26-C , 30-H ) :   0.9027 B( 27-C , 28-C ) :   1.6342 B( 28-C , 29-S ) :   1.2926
B( 28-C , 32-H ) :   0.9381 B( 34-C , 35-N ) :   1.6328 B( 34-C , 39-C ) :   1.2384
B( 34-C , 47-H ) :   0.9652 B( 35-N , 36-C ) :   1.2096 B( 36-C , 37-C ) :   1.2743
B( 36-C , 43-C ) :   1.1794 B( 37-C , 38-N ) :   1.2919 B( 37-C , 40-C ) :   1.2442
B( 38-N , 39-C ) :   1.6139 B( 39-C , 46-H ) :   0.9649 B( 40-C , 41-C ) :   1.5435
B( 40-C , 49-H ) :   0.9803 B( 41-C , 42-C ) :   1.2957 B( 41-C , 45-H ) :   0.9876
B( 42-C , 43-C ) :   1.5195 B( 42-C , 44-H ) :   0.9596

Dispersion correction           -0.023297873
FINAL SINGLE POINT ENERGY     -2092.082930323027

DIPOLE MOMENT
-------------
                                X             Y             Z
Electronic contribution:      1.89534      -2.54573      -1.09325
Nuclear contribution   :     -1.99695       2.68961       1.19121
                        -----------------------------------------
Total Dipole Moment    :     -0.10160       0.14388       0.09797
                        -----------------------------------------
Magnitude (a.u.)       :      0.20155
Magnitude (Debye)      :      0.51230

                             ****ORCA TERMINATED NORMALLY****
TOTAL RUN TIME: 0 days 0 hours 10 minutes 21 seconds 987 msec
