                         Program Version 4.0.0 -  RELEASE  -
|  1> #
|  2> !wB97X-D3 def2-TZVP def2/J RIJCOSX Grid5 FinalGrid6 TightSCF
|  3> %pal
|  4>  nprocs 24
|  5> end
|  6> %tddft
|  7>   Mode sTDDFT
|  8>   nroots 2
|  9>   Ethresh 10.0
| 10>   maxcore 5000
| 11>   triplets true
| 12> end
| 13> * xyz 0 1
| 14> C -4.14292555 -2.59071717 -0.54856239
| 15> C -3.54397597 -1.37717179 -0.21755846
| 16> C -4.33535485 -0.35057393 0.32963995
| 17> C -5.73121702 -0.57907174 0.48918508
| 18> C -6.33514083 -1.80348266 0.16499728
| 19> C -5.51783421 -2.80739143 -0.35000247
| 20> C -4.08989799 1.01945513 0.75038346
| 21> C -5.35938097 1.55841536 1.10453694
| 22> N -6.32513731 0.57621875 0.96759869
| 23> C -5.53633421 2.89532525 1.49352259
| 24> C -4.40541040 3.71032349 1.50576016
| 25> C -3.14155178 3.20234120 1.17538137
| 26> C -2.94383796 1.85472173 0.82158388
| 27> H -2.27880646 3.86222473 1.22301704
| 28> H -7.31545347 0.70133587 1.13747580
| 29> H -4.50038637 4.75565387 1.78707258
| 30> H -2.48356493 -1.23113914 -0.40067220
| 31> H -7.40224517 -1.95843538 0.30090992
| 32> H -5.95095757 -3.76851847 -0.61421187
| 33> H -3.53708651 -3.38743981 -0.97139512
| 34> N 3.09510906 0.06648607 -0.11376586
| 35> C 2.22186773 1.11866856 -0.35173047
| 36> C 2.77886248 2.19969863 -1.01583890
| 37> S 4.45891844 1.89978654 -1.36068614
| 38> C 4.30948483 0.30377851 -0.57444682
| 39> C 0.83718814 1.02504698 0.09014412
| 40> S -0.33841021 2.33548611 -0.19362412
| 41> C -1.58127930 1.35993059 0.59274438
| 42> C -1.01669062 0.17034760 1.01469068
| 43> N 0.31721471 -0.00947619 0.73107484
| 44> H 2.27486773 3.11600214 -1.29702710
| 45> H -1.55201611 -0.59173990 1.57728527
| 46> C 5.43272633 -0.62919781 -0.46398866
| 47> C 6.71222019 -0.31421787 -0.97943486
| 48> C 7.79793189 -1.20020869 -0.87992014
| 49> C 7.61833499 -2.43538758 -0.25311034
| 50> C 6.37300842 -2.78663173 0.26932317
| 51> C 5.28828424 -1.89433078 0.16655214
| 52> O 6.88806713 0.88669068 -1.58916961
| 53> O 4.09427006 -2.24943376 0.67586070
| 54> H 6.23289748 -3.74736532 0.75696362
| 55> H 7.79816283 0.98672798 -1.89822357
| 56> H 4.13512945 -3.12827771 1.07371581
| 57> H 8.76460121 -0.92067133 -1.28867840
| 58> H -6.51657252 3.28186723 1.75758097
| 59> H 8.45222093 -3.12575282 -0.17205295
| 60> *
| 61> $new_job
| 62> #
| 63> !wB97X-D3 def2-TZVP def2/J RIJCOSX Grid5 FinalGrid6 TightSCF
| 64> %pal
| 65>  nprocs 24
| 66> end
| 67> %elprop
| 68>    dipole     true
| 69>    quadrupole true
| 70> end
| 71> %tddft
| 72>   Mode sTDDFT
| 73>   nroots 2
| 74>   Ethresh 10.0
| 75>   maxcore 5000
| 76> end
| 77> * xyz 0 1
| 78> C -4.14292555 -2.59071717 -0.54856239
| 79> C -3.54397597 -1.37717179 -0.21755846
| 80> C -4.33535485 -0.35057393 0.32963995
| 81> C -5.73121702 -0.57907174 0.48918508
| 82> C -6.33514083 -1.80348266 0.16499728
| 83> C -5.51783421 -2.80739143 -0.35000247
| 84> C -4.08989799 1.01945513 0.75038346
| 85> C -5.35938097 1.55841536 1.10453694
| 86> N -6.32513731 0.57621875 0.96759869
| 87> C -5.53633421 2.89532525 1.49352259
| 88> C -4.40541040 3.71032349 1.50576016
| 89> C -3.14155178 3.20234120 1.17538137
| 90> C -2.94383796 1.85472173 0.82158388
| 91> H -2.27880646 3.86222473 1.22301704
| 92> H -7.31545347 0.70133587 1.13747580
| 93> H -4.50038637 4.75565387 1.78707258
| 94> H -2.48356493 -1.23113914 -0.40067220
| 95> H -7.40224517 -1.95843538 0.30090992
| 96> H -5.95095757 -3.76851847 -0.61421187
| 97> H -3.53708651 -3.38743981 -0.97139512
| 98> N 3.09510906 0.06648607 -0.11376586
| 99> C 2.22186773 1.11866856 -0.35173047
|100> C 2.77886248 2.19969863 -1.01583890
|101> S 4.45891844 1.89978654 -1.36068614
|102> C 4.30948483 0.30377851 -0.57444682
|103> C 0.83718814 1.02504698 0.09014412
|104> S -0.33841021 2.33548611 -0.19362412
|105> C -1.58127930 1.35993059 0.59274438
|106> C -1.01669062 0.17034760 1.01469068
|107> N 0.31721471 -0.00947619 0.73107484
|108> H 2.27486773 3.11600214 -1.29702710
|109> H -1.55201611 -0.59173990 1.57728527
|110> C 5.43272633 -0.62919781 -0.46398866
|111> C 6.71222019 -0.31421787 -0.97943486
|112> C 7.79793189 -1.20020869 -0.87992014
|113> C 7.61833499 -2.43538758 -0.25311034
|114> C 6.37300842 -2.78663173 0.26932317
|115> C 5.28828424 -1.89433078 0.16655214
|116> O 6.88806713 0.88669068 -1.58916961
|117> O 4.09427006 -2.24943376 0.67586070
|118> H 6.23289748 -3.74736532 0.75696362
|119> H 7.79816283 0.98672798 -1.89822357
|120> H 4.13512945 -3.12827771 1.07371581
|121> H 8.76460121 -0.92067133 -1.28867840
|122> H -6.51657252 3.28186723 1.75758097
|123> H 8.45222093 -3.12575282 -0.17205295
|124> *
|125>
|126>                          ****END OF INPUT****
 Total Charge           Charge          ....    0
 Multiplicity           Mult            ....    1
 Number of Electrons    NEL             ....  228
Dispersion correction           -0.021127440
FINAL SINGLE POINT ENERGY     -2034.791258815778

CARTESIAN COORDINATES (ANGSTROEM)
---------------------------------
  C     -4.142926   -2.590717   -0.548562
  C     -3.543976   -1.377172   -0.217558
  C     -4.335355   -0.350574    0.329640
  C     -5.731217   -0.579072    0.489185
  C     -6.335141   -1.803483    0.164997
  C     -5.517834   -2.807391   -0.350002
  C     -4.089898    1.019455    0.750383
  C     -5.359381    1.558415    1.104537
  N     -6.325137    0.576219    0.967599
  C     -5.536334    2.895325    1.493523
  C     -4.405410    3.710323    1.505760
  C     -3.141552    3.202341    1.175381
  C     -2.943838    1.854722    0.821584
  H     -2.278806    3.862225    1.223017
  H     -7.315453    0.701336    1.137476
  H     -4.500386    4.755654    1.787073
  H     -2.483565   -1.231139   -0.400672
  H     -7.402245   -1.958435    0.300910
  H     -5.950958   -3.768518   -0.614212
  H     -3.537087   -3.387440   -0.971395
  N      3.095109    0.066486   -0.113766
  C      2.221868    1.118669   -0.351730
  C      2.778862    2.199699   -1.015839
  S      4.458918    1.899787   -1.360686
  C      4.309485    0.303779   -0.574447
  C      0.837188    1.025047    0.090144
  S     -0.338410    2.335486   -0.193624
  C     -1.581279    1.359931    0.592744
  C     -1.016691    0.170348    1.014691
  N      0.317215   -0.009476    0.731075
  H      2.274868    3.116002   -1.297027
  H     -1.552016   -0.591740    1.577285
  C      5.432726   -0.629198   -0.463989
  C      6.712220   -0.314218   -0.979435
  C      7.797932   -1.200209   -0.879920
  C      7.618335   -2.435388   -0.253110
  C      6.373008   -2.786632    0.269323
  C      5.288284   -1.894331    0.166552
  O      6.888067    0.886691   -1.589170
  O      4.094270   -2.249434    0.675861
  H      6.232897   -3.747365    0.756964
  H      7.798163    0.986728   -1.898224
  H      4.135129   -3.128278    1.073716
  H      8.764601   -0.920671   -1.288678
  H     -6.516573    3.281867    1.757581
  H      8.452221   -3.125753   -0.172053

 Multiplicity           Mult            ....    1
 Number of Electrons    NEL             ....  228
 Basis Dimension        Dim             .... 1063

ORBITAL ENERGIES
----------------

  NO   OCC          E(Eh)            E(eV)
   0   2.0000     -88.980061     -2421.2706
   1   2.0000     -88.979434     -2421.2535
   2   2.0000     -19.284022      -524.7449
   3   2.0000     -19.264321      -524.2088
   4   2.0000     -14.465454      -393.6250
   5   2.0000     -14.417084      -392.3088
   6   2.0000     -14.414872      -392.2486
   7   2.0000     -10.367095      -282.1030
   8   2.0000     -10.364213      -282.0246
   9   2.0000     -10.355249      -281.7807
  10   2.0000     -10.350408      -281.6489
  11   2.0000     -10.326110      -280.9877
  12   2.0000     -10.322925      -280.9011
  13   2.0000     -10.322888      -280.9001
  14   2.0000     -10.319197      -280.7996
  15   2.0000     -10.310939      -280.5749
  16   2.0000     -10.307654      -280.4855
  17   2.0000     -10.306842      -280.4634
  18   2.0000     -10.304817      -280.4083
  19   2.0000     -10.301961      -280.3306
  20   2.0000     -10.292050      -280.0609
  21   2.0000     -10.287314      -279.9321
  22   2.0000     -10.286855      -279.9196
  23   2.0000     -10.286679      -279.9148
  24   2.0000     -10.285795      -279.8907
  25   2.0000     -10.285036      -279.8701
  26   2.0000     -10.283634      -279.8319
  27   2.0000     -10.281784      -279.7816
  28   2.0000     -10.280240      -279.7396
  29   2.0000     -10.278554      -279.6937
  30   2.0000     -10.271895      -279.5125
  31   2.0000      -8.076079      -219.7613
  32   2.0000      -8.075955      -219.7579
  33   2.0000      -6.029317      -164.0660
  34   2.0000      -6.029123      -164.0608
  35   2.0000      -6.025320      -163.9573
  36   2.0000      -6.024876      -163.9452
  37   2.0000      -6.023236      -163.9006
  38   2.0000      -6.023098      -163.8968
  39   2.0000      -1.203383       -32.7457
  40   2.0000      -1.188048       -32.3284
  41   2.0000      -1.101917       -29.9847
  42   2.0000      -1.076609       -29.2960
  43   2.0000      -1.057993       -28.7894
  44   2.0000      -0.978586       -26.6287
  45   2.0000      -0.973655       -26.4945
  46   2.0000      -0.962369       -26.1874
  47   2.0000      -0.915806       -24.9203
  48   2.0000      -0.911744       -24.8098
  49   2.0000      -0.900548       -24.5052
  50   2.0000      -0.895714       -24.3736
  51   2.0000      -0.876768       -23.8581
  52   2.0000      -0.861951       -23.4549
  53   2.0000      -0.858423       -23.3589
  54   2.0000      -0.840973       -22.8840
  55   2.0000      -0.835881       -22.7455
  56   2.0000      -0.814488       -22.1634
  57   2.0000      -0.765010       -20.8170
  58   2.0000      -0.760257       -20.6877
  59   2.0000      -0.746471       -20.3125
  60   2.0000      -0.722512       -19.6606
  61   2.0000      -0.713446       -19.4139
  62   2.0000      -0.710665       -19.3382
  63   2.0000      -0.695441       -18.9239
  64   2.0000      -0.688675       -18.7398
  65   2.0000      -0.681025       -18.5316
  66   2.0000      -0.663164       -18.0456
  67   2.0000      -0.639906       -17.4127
  68   2.0000      -0.629171       -17.1206
  69   2.0000      -0.617396       -16.8002
  70   2.0000      -0.615742       -16.7552
  71   2.0000      -0.609451       -16.5840
  72   2.0000      -0.606156       -16.4944
  73   2.0000      -0.581600       -15.8261
  74   2.0000      -0.577954       -15.7269
  75   2.0000      -0.565799       -15.3962
  76   2.0000      -0.556790       -15.1510
  77   2.0000      -0.553563       -15.0632
  78   2.0000      -0.552453       -15.0330
  79   2.0000      -0.543461       -14.7883
  80   2.0000      -0.539923       -14.6921
  81   2.0000      -0.533545       -14.5185
  82   2.0000      -0.529365       -14.4048
  83   2.0000      -0.526601       -14.3295
  84   2.0000      -0.522037       -14.2053
  85   2.0000      -0.515439       -14.0258
  86   2.0000      -0.508888       -13.8475
  87   2.0000      -0.508499       -13.8370
  88   2.0000      -0.503170       -13.6919
  89   2.0000      -0.491483       -13.3739
  90   2.0000      -0.487035       -13.2529
  91   2.0000      -0.474906       -12.9229
  92   2.0000      -0.468475       -12.7479
  93   2.0000      -0.464936       -12.6516
  94   2.0000      -0.461012       -12.5448
  95   2.0000      -0.454771       -12.3749
  96   2.0000      -0.445642       -12.1265
  97   2.0000      -0.439459       -11.9583
  98   2.0000      -0.434922       -11.8348
  99   2.0000      -0.433084       -11.7848
 100   2.0000      -0.429360       -11.6835
 101   2.0000      -0.429137       -11.6774
 102   2.0000      -0.391644       -10.6572
 103   2.0000      -0.379936       -10.3386
 104   2.0000      -0.371701       -10.1145
 105   2.0000      -0.362869        -9.8742
 106   2.0000      -0.359696        -9.7878
 107   2.0000      -0.348599        -9.4859
 108   2.0000      -0.343787        -9.3549
 109   2.0000      -0.320866        -8.7312
 110   2.0000      -0.312814        -8.5121
 111   2.0000      -0.298036        -8.1100
 112   2.0000      -0.290919        -7.9163
 113   2.0000      -0.271804        -7.3962
 114   0.0000       0.002701         0.0735
 115   0.0000       0.019339         0.5262
 116   0.0000       0.039136         1.0649
 117   0.0000       0.063148         1.7184
 118   0.0000       0.073085         1.9887

MULLIKEN ATOMIC CHARGES
-----------------------
   0 C :   -0.154326
   1 C :   -0.225560
   2 C :   -0.029451
   3 C :    0.171988
   4 C :   -0.231790
   5 C :   -0.092295
   6 C :   -0.027688
   7 C :    0.185664
   8 N :   -0.301189
   9 C :   -0.246207
  10 C :   -0.076246
  11 C :   -0.274691
  12 C :    0.215602
  13 H :    0.128279
  14 H :    0.235755
  15 H :    0.122284
  16 H :    0.213361
  17 H :    0.112946
  18 H :    0.121694
  19 H :    0.120052
  20 N :   -0.238017
  21 C :    0.042229
  22 C :   -0.228868
  23 S :    0.082101
  24 C :    0.251062
  25 C :    0.163675
  26 S :   -0.001096
  27 C :    0.048938
  28 C :   -0.237486
  29 N :   -0.233665
  30 H :    0.163255
  31 H :    0.188146
  32 C :   -0.150038
  33 C :    0.297232
  34 C :   -0.271942
  35 C :   -0.108506
  36 C :   -0.256987
  37 C :    0.179648
  38 O :   -0.427933
  39 O :   -0.349226
  40 H :    0.110524
  41 H :    0.332572
  42 H :    0.322563
  43 H :    0.108339
  44 H :    0.115155
  45 H :    0.130143
Sum of atomic charges:   -0.0000000

LOEWDIN ATOMIC CHARGES
----------------------
   0 C :   -0.158347
   1 C :   -0.103842
   2 C :   -0.080980
   3 C :   -0.145721
   4 C :   -0.134114
   5 C :   -0.142932
   6 C :   -0.041254
   7 C :   -0.144125
   8 N :    0.199673
   9 C :   -0.131295
  10 C :   -0.141932
  11 C :   -0.126680
  12 C :   -0.109693
  13 H :    0.145435
  14 H :    0.192623
  15 H :    0.146129
  16 H :    0.155506
  17 H :    0.142650
  18 H :    0.144300
  19 H :    0.144150
  20 N :    0.166257
  21 C :   -0.286705
  22 C :   -0.373148
  23 S :    0.700011
  24 C :   -0.359174
  25 C :   -0.380396
  26 S :    0.708762
  27 C :   -0.323365
  28 C :   -0.231748
  29 N :    0.125643
  30 H :    0.129865
  31 H :    0.148094
  32 C :   -0.113359
  33 C :   -0.227468
  34 C :   -0.168868
  35 C :   -0.131685
  36 C :   -0.162277
  37 C :   -0.216347
  38 O :    0.090650
  39 O :    0.132580
  40 H :    0.142294
  41 H :    0.195844
  42 H :    0.192509
  43 H :    0.141249
  44 H :    0.143254
  45 H :    0.147976

  Mayer bond orders larger than 0.1
B(  0-C ,  1-C ) :   1.5341 B(  0-C ,  5-C ) :   1.3580 B(  0-C , 19-H ) :   0.9845
B(  1-C ,  2-C ) :   1.2809 B(  1-C , 16-H ) :   0.9200 B(  2-C ,  3-C ) :   1.3694
B(  2-C ,  6-C ) :   1.0538 B(  3-C ,  4-C ) :   1.3094 B(  3-C ,  8-N ) :   1.1211
B(  4-C ,  5-C ) :   1.4819 B(  4-C , 17-H ) :   0.9777 B(  5-C , 18-H ) :   0.9817
B(  6-C ,  7-C ) :   1.3310 B(  6-C , 12-C ) :   1.2236 B(  7-C ,  8-N ) :   1.1487
B(  7-C ,  9-C ) :   1.2802 B(  8-N , 14-H ) :   0.9131 B(  9-C , 10-C ) :   1.4683
B(  9-C , 44-H ) :   0.9784 B( 10-C , 11-C ) :   1.4021 B( 10-C , 15-H ) :   0.9828
B( 11-C , 12-C ) :   1.4274 B( 11-C , 13-H ) :   0.9624 B( 12-C , 27-C ) :   0.8276
B( 20-N , 21-C ) :   1.2873 B( 20-N , 24-C ) :   1.6757 B( 21-C , 22-C ) :   1.6501
B( 21-C , 25-C ) :   0.9926 B( 22-C , 23-S ) :   1.2870 B( 22-C , 30-H ) :   0.9338
B( 23-S , 24-C ) :   1.2641 B( 24-C , 32-C ) :   0.9417 B( 25-C , 26-S ) :   1.3052
B( 25-C , 29-N ) :   1.6292 B( 26-S , 27-C ) :   1.2420 B( 26-S , 28-C ) :   0.1110
B( 27-C , 28-C ) :   1.5955 B( 28-C , 29-N ) :   1.3067 B( 28-C , 31-H ) :   0.9745
B( 32-C , 33-C ) :   1.3116 B( 32-C , 37-C ) :   1.3205 B( 33-C , 34-C ) :   1.4023
B( 33-C , 38-O ) :   1.1016 B( 34-C , 35-C ) :   1.4471 B( 34-C , 43-H ) :   0.9632
B( 35-C , 36-C ) :   1.4451 B( 35-C , 45-H ) :   0.9636 B( 36-C , 37-C ) :   1.3952
B( 36-C , 40-H ) :   0.9684 B( 37-C , 39-O ) :   1.2631 B( 38-O , 41-H ) :   0.8691
B( 39-O , 42-H ) :   0.8726

Dispersion correction           -0.021127440
FINAL SINGLE POINT ENERGY     -2034.791258679152

DIPOLE MOMENT
-------------
                                X             Y             Z
Electronic contribution:      9.25339       9.20685      -2.55135
Nuclear contribution   :     -8.81206      -9.35389       2.42043
                        -----------------------------------------
Total Dipole Moment    :      0.44133      -0.14704      -0.13092
                        -----------------------------------------
Magnitude (a.u.)       :      0.48326
Magnitude (Debye)      :      1.22834

                             ****ORCA TERMINATED NORMALLY****
TOTAL RUN TIME: 0 days 0 hours 10 minutes 27 seconds 492 msec
