                         Program Version 4.0.0 -  RELEASE  -
|  1> #
|  2> !wB97X-D3 def2-TZVP def2/J RIJCOSX Grid5 FinalGrid6 TightSCF
|  3> %pal
|  4>  nprocs 24
|  5> end
|  6> %tddft
|  7>   Mode sTDDFT
|  8>   nroots 2
|  9>   Ethresh 10.0
| 10>   maxcore 5000
| 11>   triplets true
| 12> end
| 13> * xyz 0 1
| 14> C -7.78786240 0.41430189 2.76597231
| 15> C -6.89411104 0.40349843 1.69833473
| 16> C -7.37789400 0.63632687 0.39650835
| 17> C -8.77408977 0.85177598 0.22290465
| 18> C -9.67592923 0.86891804 1.29789279
| 19> C -9.16031769 0.65034904 2.57256505
| 20> C -6.78566393 0.67667464 -0.93190770
| 21> C -7.86621025 0.88865454 -1.83881682
| 22> N -9.04336792 1.00998621 -1.12530646
| 23> C -7.69963839 0.93475256 -3.23099979
| 24> C -6.41214414 0.74922392 -3.72913009
| 25> C -5.32885490 0.54618657 -2.86416123
| 26> C -5.47742222 0.52396839 -1.46465762
| 27> H -4.33387359 0.42805114 -3.28482381
| 28> H -9.96070269 1.15450277 -1.52915261
| 29> H -6.24004619 0.76964603 -4.80135322
| 30> H -5.84194112 0.21143845 1.88101546
| 31> H -10.73711576 1.03990291 1.13841530
| 32> H -9.82817317 0.65527371 3.42973580
| 33> H -7.41826470 0.23629772 3.77191828
| 34> C 1.16482407 -1.21306213 0.53576038
| 35> N 0.92998948 -0.61064136 1.70954503
| 36> O -0.34244319 -0.13769180 1.66259364
| 37> C -0.90149262 -0.43642512 0.47958827
| 38> C 0.00842964 -1.12870711 -0.29600604
| 39> C -2.27236456 -0.01414021 0.22680338
| 40> N -2.98837948 0.66417551 1.13566229
| 41> O -4.20644997 0.88883582 0.57761967
| 42> C -4.26542016 0.36266566 -0.65448817
| 43> C -3.04816290 -0.22576768 -0.94880712
| 44> H -2.76196769 -0.74707879 -1.85054915
| 45> H -0.13337350 -1.51009511 -1.29687678
| 46> C 13.79471780 1.46644421 -0.43253883
| 47> C 13.52771905 2.07879420 0.73020982
| 48> S 12.45926075 1.43354899 2.01126840
| 49> C 11.28099001 0.48200217 1.06437433
| 50> C 11.55114445 -0.13757415 -0.11183323
| 51> S 13.13601727 -0.11866405 -0.93548777
| 52> S 9.60360708 0.40443786 1.66848379
| 53> C 8.98656247 -0.61118661 0.33117205
| 54> S 10.20103400 -0.96632888 -0.93376294
| 55> C 7.70898189 -1.06694267 0.27797471
| 56> S 6.49274596 -0.70511031 1.53812286
| 57> C 5.19286527 -1.68787860 0.81063304
| 58> C 5.46544107 -2.30884893 -0.36431355
| 59> S 7.09103858 -2.07537321 -1.06407408
| 60> S 3.61713322 -1.72885086 1.64505913
| 61> C 2.45729041 -1.84627552 0.26970728
| 62> C 2.74389708 -2.46845412 -0.89650067
| 63> S 4.28500793 -3.27168521 -1.29550615
| 64> H 1.99764206 -2.50281697 -1.68871052
| 65> H 13.96316843 3.05174516 0.95051181
| 66> H -8.54461602 1.09902615 -3.89358640
| 67> H 14.44858522 1.93829388 -1.16370185
| 68> *
| 69> $new_job
| 70> #
| 71> !wB97X-D3 def2-TZVP def2/J RIJCOSX Grid5 FinalGrid6 TightSCF
| 72> %pal
| 73>  nprocs 24
| 74> end
| 75> %elprop
| 76>    dipole     true
| 77>    quadrupole true
| 78> end
| 79> %tddft
| 80>   Mode sTDDFT
| 81>   nroots 2
| 82>   Ethresh 10.0
| 83>   maxcore 5000
| 84> end
| 85> * xyz 0 1
| 86> C -7.78786240 0.41430189 2.76597231
| 87> C -6.89411104 0.40349843 1.69833473
| 88> C -7.37789400 0.63632687 0.39650835
| 89> C -8.77408977 0.85177598 0.22290465
| 90> C -9.67592923 0.86891804 1.29789279
| 91> C -9.16031769 0.65034904 2.57256505
| 92> C -6.78566393 0.67667464 -0.93190770
| 93> C -7.86621025 0.88865454 -1.83881682
| 94> N -9.04336792 1.00998621 -1.12530646
| 95> C -7.69963839 0.93475256 -3.23099979
| 96> C -6.41214414 0.74922392 -3.72913009
| 97> C -5.32885490 0.54618657 -2.86416123
| 98> C -5.47742222 0.52396839 -1.46465762
| 99> H -4.33387359 0.42805114 -3.28482381
|100> H -9.96070269 1.15450277 -1.52915261
|101> H -6.24004619 0.76964603 -4.80135322
|102> H -5.84194112 0.21143845 1.88101546
|103> H -10.73711576 1.03990291 1.13841530
|104> H -9.82817317 0.65527371 3.42973580
|105> H -7.41826470 0.23629772 3.77191828
|106> C 1.16482407 -1.21306213 0.53576038
|107> N 0.92998948 -0.61064136 1.70954503
|108> O -0.34244319 -0.13769180 1.66259364
|109> C -0.90149262 -0.43642512 0.47958827
|110> C 0.00842964 -1.12870711 -0.29600604
|111> C -2.27236456 -0.01414021 0.22680338
|112> N -2.98837948 0.66417551 1.13566229
|113> O -4.20644997 0.88883582 0.57761967
|114> C -4.26542016 0.36266566 -0.65448817
|115> C -3.04816290 -0.22576768 -0.94880712
|116> H -2.76196769 -0.74707879 -1.85054915
|117> H -0.13337350 -1.51009511 -1.29687678
|118> C 13.79471780 1.46644421 -0.43253883
|119> C 13.52771905 2.07879420 0.73020982
|120> S 12.45926075 1.43354899 2.01126840
|121> C 11.28099001 0.48200217 1.06437433
|122> C 11.55114445 -0.13757415 -0.11183323
|123> S 13.13601727 -0.11866405 -0.93548777
|124> S 9.60360708 0.40443786 1.66848379
|125> C 8.98656247 -0.61118661 0.33117205
|126> S 10.20103400 -0.96632888 -0.93376294
|127> C 7.70898189 -1.06694267 0.27797471
|128> S 6.49274596 -0.70511031 1.53812286
|129> C 5.19286527 -1.68787860 0.81063304
|130> C 5.46544107 -2.30884893 -0.36431355
|131> S 7.09103858 -2.07537321 -1.06407408
|132> S 3.61713322 -1.72885086 1.64505913
|133> C 2.45729041 -1.84627552 0.26970728
|134> C 2.74389708 -2.46845412 -0.89650067
|135> S 4.28500793 -3.27168521 -1.29550615
|136> H 1.99764206 -2.50281697 -1.68871052
|137> H 13.96316843 3.05174516 0.95051181
|138> H -8.54461602 1.09902615 -3.89358640
|139> H 14.44858522 1.93829388 -1.16370185
|140> *
|141>
|142>                          ****END OF INPUT****
 Total Charge           Charge          ....    0
 Multiplicity           Mult            ....    1
 Number of Electrons    NEL             ....  346
Dispersion correction           -0.025510922
FINAL SINGLE POINT ENERGY     -4575.039260762807

CARTESIAN COORDINATES (ANGSTROEM)
---------------------------------
  C     -7.787862    0.414302    2.765972
  C     -6.894111    0.403498    1.698335
  C     -7.377894    0.636327    0.396508
  C     -8.774090    0.851776    0.222905
  C     -9.675929    0.868918    1.297893
  C     -9.160318    0.650349    2.572565
  C     -6.785664    0.676675   -0.931908
  C     -7.866210    0.888655   -1.838817
  N     -9.043368    1.009986   -1.125306
  C     -7.699638    0.934753   -3.231000
  C     -6.412144    0.749224   -3.729130
  C     -5.328855    0.546187   -2.864161
  C     -5.477422    0.523968   -1.464658
  H     -4.333874    0.428051   -3.284824
  H     -9.960703    1.154503   -1.529153
  H     -6.240046    0.769646   -4.801353
  H     -5.841941    0.211438    1.881015
  H    -10.737116    1.039903    1.138415
  H     -9.828173    0.655274    3.429736
  H     -7.418265    0.236298    3.771918
  C      1.164824   -1.213062    0.535760
  N      0.929989   -0.610641    1.709545
  O     -0.342443   -0.137692    1.662594
  C     -0.901493   -0.436425    0.479588
  C      0.008430   -1.128707   -0.296006
  C     -2.272365   -0.014140    0.226803
  N     -2.988379    0.664176    1.135662
  O     -4.206450    0.888836    0.577620
  C     -4.265420    0.362666   -0.654488
  C     -3.048163   -0.225768   -0.948807
  H     -2.761968   -0.747079   -1.850549
  H     -0.133374   -1.510095   -1.296877
  C     13.794718    1.466444   -0.432539
  C     13.527719    2.078794    0.730210
  S     12.459261    1.433549    2.011268
  C     11.280990    0.482002    1.064374
  C     11.551144   -0.137574   -0.111833
  S     13.136017   -0.118664   -0.935488
  S      9.603607    0.404438    1.668484
  C      8.986562   -0.611187    0.331172
  S     10.201034   -0.966329   -0.933763
  C      7.708982   -1.066943    0.277975
  S      6.492746   -0.705110    1.538123
  C      5.192865   -1.687879    0.810633
  C      5.465441   -2.308849   -0.364314
  S      7.091039   -2.075373   -1.064074
  S      3.617133   -1.728851    1.645059
  C      2.457290   -1.846276    0.269707
  C      2.743897   -2.468454   -0.896501
  S      4.285008   -3.271685   -1.295506
  H      1.997642   -2.502817   -1.688711
  H     13.963168    3.051745    0.950512
  H     -8.544616    1.099026   -3.893586
  H     14.448585    1.938294   -1.163702

 Multiplicity           Mult            ....    1
 Number of Electrons    NEL             ....  346
 Basis Dimension        Dim             .... 1397

ORBITAL ENERGIES
----------------

  NO   OCC          E(Eh)            E(eV)
   0   2.0000     -88.995844     -2421.7000
   1   2.0000     -88.995221     -2421.6831
   2   2.0000     -88.995192     -2421.6823
   3   2.0000     -88.995110     -2421.6801
   4   2.0000     -88.994974     -2421.6764
   5   2.0000     -88.988910     -2421.5114
   6   2.0000     -88.988769     -2421.5075
   7   2.0000     -88.987419     -2421.4708
   8   2.0000     -19.346721      -526.4511
   9   2.0000     -19.345957      -526.4303
  10   2.0000     -14.492140      -394.3512
  11   2.0000     -14.491015      -394.3206
  12   2.0000     -14.476628      -393.9291
  13   2.0000     -10.383441      -282.5478
  14   2.0000     -10.376813      -282.3674
  15   2.0000     -10.367658      -282.1183
  16   2.0000     -10.367069      -282.1023
  17   2.0000     -10.366925      -282.0984
  18   2.0000     -10.366334      -282.0823
  19   2.0000     -10.363842      -282.0145
  20   2.0000     -10.363118      -281.9948
  21   2.0000     -10.359376      -281.8929
  22   2.0000     -10.353907      -281.7441
  23   2.0000     -10.353662      -281.7375
  24   2.0000     -10.349120      -281.6139
  25   2.0000     -10.340461      -281.3783
  26   2.0000     -10.339977      -281.3651
  27   2.0000     -10.339149      -281.3425
  28   2.0000     -10.332638      -281.1654
  29   2.0000     -10.325276      -280.9651
  30   2.0000     -10.316681      -280.7312
  31   2.0000     -10.310581      -280.5652
  32   2.0000     -10.309820      -280.5445
  33   2.0000     -10.303891      -280.3831
  34   2.0000     -10.301392      -280.3151
  35   2.0000     -10.299649      -280.2677
  36   2.0000     -10.296796      -280.1901
  37   2.0000     -10.291061      -280.0340
  38   2.0000     -10.289712      -279.9973
  39   2.0000     -10.287324      -279.9323
  40   2.0000     -10.278321      -279.6873
  41   2.0000      -8.091867      -220.1909
  42   2.0000      -8.091231      -220.1736
  43   2.0000      -8.091220      -220.1733
  44   2.0000      -8.091101      -220.1701
  45   2.0000      -8.090987      -220.1669
  46   2.0000      -8.085093      -220.0066
  47   2.0000      -8.084954      -220.0028
  48   2.0000      -8.083495      -219.9631
  49   2.0000      -6.046151      -164.5241
  50   2.0000      -6.045561      -164.5081
  51   2.0000      -6.045524      -164.5071
  52   2.0000      -6.045417      -164.5042
  53   2.0000      -6.045282      -164.5005
  54   2.0000      -6.041923      -164.4091
  55   2.0000      -6.041307      -164.3923
  56   2.0000      -6.041264      -164.3911
  57   2.0000      -6.041132      -164.3876
  58   2.0000      -6.041026      -164.3847
  59   2.0000      -6.039436      -164.3414
  60   2.0000      -6.039299      -164.3377
  61   2.0000      -6.037919      -164.3001
  62   2.0000      -6.036803      -164.2697
  63   2.0000      -6.036159      -164.2522
  64   2.0000      -6.036108      -164.2508
  65   2.0000      -6.036029      -164.2487
  66   2.0000      -6.035920      -164.2457
  67   2.0000      -6.035164      -164.2252
  68   2.0000      -6.035026      -164.2214
  69   2.0000      -6.033681      -164.1848
  70   2.0000      -6.029908      -164.0821
  71   2.0000      -6.029768      -164.0783
  72   2.0000      -6.028025      -164.0309
  73   2.0000      -1.296999       -35.2931
  74   2.0000      -1.293343       -35.1937
  75   2.0000      -1.114097       -30.3161
  76   2.0000      -1.034267       -28.1438
  77   2.0000      -1.027449       -27.9583
  78   2.0000      -1.017987       -27.7008
  79   2.0000      -1.006182       -27.3796
  80   2.0000      -0.990170       -26.9439
  81   2.0000      -0.976838       -26.5811
  82   2.0000      -0.970952       -26.4210
  83   2.0000      -0.957404       -26.0523
  84   2.0000      -0.946766       -25.7628
  85   2.0000      -0.929515       -25.2934
  86   2.0000      -0.923818       -25.1384
  87   2.0000      -0.920594       -25.0506
  88   2.0000      -0.914274       -24.8786
  89   2.0000      -0.908893       -24.7322
  90   2.0000      -0.879542       -23.9336
  91   2.0000      -0.872760       -23.7490
  92   2.0000      -0.870443       -23.6860
  93   2.0000      -0.858332       -23.3564
  94   2.0000      -0.853226       -23.2175
  95   2.0000      -0.847630       -23.0652
  96   2.0000      -0.817898       -22.2561
  97   2.0000      -0.791215       -21.5301
  98   2.0000      -0.781523       -21.2663
  99   2.0000      -0.775655       -21.1066
 100   2.0000      -0.762053       -20.7365
 101   2.0000      -0.748770       -20.3751
 102   2.0000      -0.742692       -20.2097
 103   2.0000      -0.727710       -19.8020
 104   2.0000      -0.721851       -19.6426
 105   2.0000      -0.717714       -19.5300
 106   2.0000      -0.712906       -19.3992
 107   2.0000      -0.707354       -19.2481
 108   2.0000      -0.674807       -18.3624
 109   2.0000      -0.670577       -18.2473
 110   2.0000      -0.648431       -17.6447
 111   2.0000      -0.635518       -17.2933
 112   2.0000      -0.625823       -17.0295
 113   2.0000      -0.622807       -16.9474
 114   2.0000      -0.621965       -16.9245
 115   2.0000      -0.616542       -16.7769
 116   2.0000      -0.611619       -16.6430
 117   2.0000      -0.605427       -16.4745
 118   2.0000      -0.604585       -16.4516
 119   2.0000      -0.600772       -16.3478
 120   2.0000      -0.591934       -16.1074
 121   2.0000      -0.584088       -15.8938
 122   2.0000      -0.577538       -15.7156
 123   2.0000      -0.569733       -15.5032
 124   2.0000      -0.567037       -15.4299
 125   2.0000      -0.557521       -15.1709
 126   2.0000      -0.554532       -15.0896
 127   2.0000      -0.541812       -14.7435
 128   2.0000      -0.540037       -14.6951
 129   2.0000      -0.537430       -14.6242
 130   2.0000      -0.535085       -14.5604
 131   2.0000      -0.530501       -14.4357
 132   2.0000      -0.529975       -14.4213
 133   2.0000      -0.526678       -14.3316
 134   2.0000      -0.522167       -14.2089
 135   2.0000      -0.514810       -14.0087
 136   2.0000      -0.509167       -13.8551
 137   2.0000      -0.506804       -13.7908
 138   2.0000      -0.502376       -13.6703
 139   2.0000      -0.494013       -13.4428
 140   2.0000      -0.480146       -13.0654
 141   2.0000      -0.475917       -12.9504
 142   2.0000      -0.474442       -12.9102
 143   2.0000      -0.467302       -12.7159
 144   2.0000      -0.464332       -12.6351
 145   2.0000      -0.458269       -12.4701
 146   2.0000      -0.457027       -12.4363
 147   2.0000      -0.452370       -12.3096
 148   2.0000      -0.451642       -12.2898
 149   2.0000      -0.448686       -12.2094
 150   2.0000      -0.444494       -12.0953
 151   2.0000      -0.441684       -12.0188
 152   2.0000      -0.435944       -11.8626
 153   2.0000      -0.434528       -11.8241
 154   2.0000      -0.425283       -11.5725
 155   2.0000      -0.421898       -11.4804
 156   2.0000      -0.419556       -11.4167
 157   2.0000      -0.415035       -11.2937
 158   2.0000      -0.408772       -11.1233
 159   2.0000      -0.403131       -10.9698
 160   2.0000      -0.399321       -10.8661
 161   2.0000      -0.391475       -10.6526
 162   2.0000      -0.378647       -10.3035
 163   2.0000      -0.369362       -10.0508
 164   2.0000      -0.360274        -9.8036
 165   2.0000      -0.356210        -9.6930
 166   2.0000      -0.348533        -9.4841
 167   2.0000      -0.340266        -9.2591
 168   2.0000      -0.310734        -8.4555
 169   2.0000      -0.307442        -8.3659
 170   2.0000      -0.296480        -8.0676
 171   2.0000      -0.292825        -7.9682
 172   2.0000      -0.254973        -6.9382
 173   0.0000      -0.008468        -0.2304
 174   0.0000       0.000102         0.0028
 175   0.0000       0.014888         0.4051
 176   0.0000       0.016636         0.4527
 177   0.0000       0.023468         0.6386

MULLIKEN ATOMIC CHARGES
-----------------------
   0 C :   -0.176952
   1 C :   -0.129525
   2 C :   -0.038854
   3 C :    0.167360
   4 C :   -0.235270
   5 C :   -0.076490
   6 C :   -0.026215
   7 C :    0.175870
   8 N :   -0.303109
   9 C :   -0.222518
  10 C :   -0.092291
  11 C :   -0.277105
  12 C :    0.084513
  13 H :    0.121494
  14 H :    0.238265
  15 H :    0.126418
  16 H :    0.151187
  17 H :    0.116307
  18 H :    0.125768
  19 H :    0.123533
  20 C :    0.266443
  21 N :   -0.142364
  22 O :   -0.096552
  23 C :    0.188601
  24 C :   -0.292315
  25 C :    0.159765
  26 N :   -0.156307
  27 O :   -0.125395
  28 C :    0.280310
  29 C :   -0.264975
  30 H :    0.162421
  31 H :    0.160183
  32 C :   -0.164695
  33 C :   -0.166898
  34 S :    0.009841
  35 C :   -0.022472
  36 C :   -0.021956
  37 S :    0.009023
  38 S :    0.016064
  39 C :   -0.004916
  40 S :    0.010648
  41 C :    0.000115
  42 S :    0.017934
  43 C :   -0.033649
  44 C :   -0.013341
  45 S :    0.009936
  46 S :    0.022836
  47 C :   -0.158596
  48 C :   -0.119254
  49 S :    0.011091
  50 H :    0.151886
  51 H :    0.166677
  52 H :    0.121458
  53 H :    0.166067
Sum of atomic charges:   -0.0000000

LOEWDIN ATOMIC CHARGES
----------------------
   0 C :   -0.154683
   1 C :   -0.096025
   2 C :   -0.081025
   3 C :   -0.143970
   4 C :   -0.133096
   5 C :   -0.137205
   6 C :   -0.033845
   7 C :   -0.142652
   8 N :    0.202555
   9 C :   -0.119023
  10 C :   -0.140569
  11 C :   -0.108715
  12 C :   -0.082918
  13 H :    0.149383
  14 H :    0.194286
  15 H :    0.147762
  16 H :    0.152199
  17 H :    0.143498
  18 H :    0.145620
  19 H :    0.145578
  20 C :   -0.257736
  21 N :    0.045814
  22 O :    0.320617
  23 C :   -0.213390
  24 C :   -0.118099
  25 C :   -0.228745
  26 N :    0.050565
  27 O :    0.313977
  28 C :   -0.196191
  29 C :   -0.121375
  30 H :    0.148318
  31 H :    0.146791
  32 C :   -0.412902
  33 C :   -0.412682
  34 S :    0.601090
  35 C :   -0.638271
  36 C :   -0.638604
  37 S :    0.599885
  38 S :    0.627525
  39 C :   -0.632097
  40 S :    0.625094
  41 C :   -0.632724
  42 S :    0.632633
  43 C :   -0.637537
  44 C :   -0.639745
  45 S :    0.623791
  46 S :    0.667405
  47 C :   -0.352886
  48 C :   -0.362733
  49 S :    0.614869
  50 H :    0.142063
  51 H :    0.141125
  52 H :    0.146026
  53 H :    0.140972

  Mayer bond orders larger than 0.1
B(  0-C ,  1-C ) :   1.5365 B(  0-C ,  5-C ) :   1.3550 B(  0-C , 19-H ) :   0.9846
B(  1-C ,  2-C ) :   1.2666 B(  1-C , 16-H ) :   0.9361 B(  2-C ,  3-C ) :   1.3689
B(  2-C ,  6-C ) :   1.0763 B(  3-C ,  4-C ) :   1.3094 B(  3-C ,  8-N ) :   1.1159
B(  4-C ,  5-C ) :   1.4845 B(  4-C , 17-H ) :   0.9758 B(  5-C , 18-H ) :   0.9786
B(  6-C ,  7-C ) :   1.3290 B(  6-C , 12-C ) :   1.2510 B(  7-C ,  8-N ) :   1.1561
B(  7-C ,  9-C ) :   1.2943 B(  8-N , 14-H ) :   0.9123 B(  9-C , 10-C ) :   1.4604
B(  9-C , 52-H ) :   0.9726 B( 10-C , 11-C ) :   1.4109 B( 10-C , 15-H ) :   0.9832
B( 11-C , 12-C ) :   1.4325 B( 11-C , 13-H ) :   0.9694 B( 12-C , 28-C ) :   0.9674
B( 20-C , 21-N ) :   1.6334 B( 20-C , 24-C ) :   1.2979 B( 20-C , 47-C ) :   0.9049
B( 21-N , 22-O ) :   0.9880 B( 21-N , 23-C ) :   0.1116 B( 22-O , 23-C ) :   1.2223
B( 23-C , 24-C ) :   1.6705 B( 23-C , 25-C ) :   0.9773 B( 24-C , 31-H ) :   0.8983
B( 25-C , 26-N ) :   1.6397 B( 25-C , 29-C ) :   1.2830 B( 26-N , 27-O ) :   0.9875
B( 26-N , 28-C ) :   0.1252 B( 27-O , 28-C ) :   1.1740 B( 28-C , 29-C ) :   1.6043
B( 29-C , 30-H ) :   0.9226 B( 32-C , 33-C ) :   1.8902 B( 32-C , 37-S ) :   1.0775
B( 32-C , 53-H ) :   0.9281 B( 33-C , 34-S ) :   1.0804 B( 33-C , 51-H ) :   0.9276
B( 34-S , 35-C ) :   1.0754 B( 35-C , 36-C ) :   1.7355 B( 35-C , 38-S ) :   1.1207
B( 36-C , 37-S ) :   1.0760 B( 36-C , 40-S ) :   1.1173 B( 38-S , 39-C ) :   1.1254
B( 39-C , 40-S ) :   1.1241 B( 39-C , 41-C ) :   1.5543 B( 41-C , 42-S ) :   1.1236
B( 41-C , 45-S ) :   1.1242 B( 42-S , 43-C ) :   1.1257 B( 43-C , 44-C ) :   1.7276
B( 43-C , 46-S ) :   1.0875 B( 44-C , 45-S ) :   1.1174 B( 44-C , 49-S ) :   1.0648
B( 46-S , 47-C ) :   1.1551 B( 47-C , 48-C ) :   1.8091 B( 48-C , 49-S ) :   1.0926
B( 48-C , 50-H ) :   0.9367

Dispersion correction           -0.025510922
FINAL SINGLE POINT ENERGY     -4575.039260596037

DIPOLE MOMENT
-------------
                                X             Y             Z
Electronic contribution:     63.35138      -8.93041       6.86488
Nuclear contribution   :    -65.12336       9.21527      -9.39097
                        -----------------------------------------
Total Dipole Moment    :     -1.77198       0.28486      -2.52609
                        -----------------------------------------
Magnitude (a.u.)       :      3.09874
Magnitude (Debye)      :      7.87638

                             ****ORCA TERMINATED NORMALLY****
TOTAL RUN TIME: 0 days 0 hours 18 minutes 58 seconds 438 msec
