                         Program Version 4.0.0 -  RELEASE  -
|  1> #
|  2> !wB97X-D3 def2-TZVP def2/J RIJCOSX Grid5 FinalGrid6 TightSCF
|  3> %pal
|  4>  nprocs 24
|  5> end
|  6> %tddft
|  7>   Mode sTDDFT
|  8>   nroots 2
|  9>   Ethresh 10.0
| 10>   maxcore 5000
| 11>   triplets true
| 12> end
| 13> * xyz 0 1
| 14> C 7.82598602 0.21868174 -3.06185801
| 15> C 7.33458237 0.05200950 -1.76962067
| 16> C 8.24294407 -0.12651165 -0.70889214
| 17> C 9.63563313 -0.11886160 -1.00222754
| 18> C 10.13328672 0.04185261 -2.30442462
| 19> C 9.20619481 0.20952641 -3.32990404
| 20> C 8.12359195 -0.29872246 0.73082178
| 21> C 9.45823343 -0.36694806 1.23022625
| 22> N 10.34635818 -0.27474689 0.17492637
| 23> C 9.76206037 -0.48522481 2.59441630
| 24> C 8.69295704 -0.51997825 3.48722219
| 25> C 7.37162549 -0.45292737 3.02839442
| 26> C 7.04897988 -0.36039100 1.66065297
| 27> H 6.56305577 -0.49862036 3.75439919
| 28> H 11.35559082 -0.28385831 0.25671547
| 29> H 8.88243265 -0.60339257 4.55352269
| 30> H 6.26361864 0.05677361 -1.58923772
| 31> H 11.20188275 0.04036604 -2.50220101
| 32> H 9.55380603 0.33726968 -4.35169222
| 33> H 7.12891942 0.35572198 -3.88407010
| 34> S 0.64328249 -0.43521593 -0.05733024
| 35> C 1.78604345 -0.01501313 1.23072914
| 36> N 1.20263262 0.48466232 2.31192352
| 37> N -0.15688620 0.56986157 2.20506575
| 38> C -0.63100401 0.13771038 1.04217125
| 39> C 3.21227198 -0.20410352 1.09783614
| 40> N 3.79203716 -0.70809979 0.01631868
| 41> N 5.15349386 -0.79157732 0.12163428
| 42> C 5.63428052 -0.35076719 1.27396930
| 43> S 4.35673988 0.21691767 2.37923981
| 44> C -3.86271547 -0.31593811 -0.86309616
| 45> C -4.81305323 0.13908875 0.07786568
| 46> C -4.35649617 0.59113081 1.33657307
| 47> C -3.00210500 0.58831289 1.63763693
| 48> C -2.04892958 0.13290622 0.70181106
| 49> C -2.50984065 -0.31865067 -0.55115801
| 50> N -6.19048873 0.14215967 -0.23314772
| 51> C -7.05106931 1.12577324 0.32939126
| 52> C -6.59250183 2.44090211 0.54125071
| 53> C -7.44259644 3.39686469 1.09284322
| 54> C -8.75716900 3.06692305 1.43128933
| 55> C -9.21857497 1.76606207 1.21600098
| 56> C -8.37701273 0.79738767 0.67363700
| 57> C -6.72987134 -0.83794554 -1.11218890
| 58> C -6.23080810 -2.15542458 -1.10758499
| 59> C -6.76525601 -3.10806064 -1.97223814
| 60> C -7.80470942 -2.77242384 -2.84310915
| 61> C -8.30789189 -1.46922982 -2.84588025
| 62> C -7.77720267 -0.50389000 -1.99313119
| 63> H -5.43288077 -2.42774985 -0.42248052
| 64> H -6.37442579 -4.12206633 -1.95808924
| 65> H -9.11334308 -1.19942586 -3.52388218
| 66> H -8.16587961 0.51042631 -2.00789650
| 67> H -5.57609571 2.70879089 0.26675230
| 68> H -7.07896334 4.40896397 1.24953911
| 69> H -9.41641850 3.81714483 1.85792680
| 70> H -10.23858551 1.50064128 1.48126363
| 71> H -8.73878736 -0.21518421 0.51888359
| 72> H -5.07367181 0.93152929 2.07799376
| 73> H -2.66406325 0.93021919 2.61182737
| 74> H -1.79251005 -0.66486975 -1.29244895
| 75> H -4.19178977 -0.65425115 -1.84122332
| 76> H 10.79071981 -0.53653101 2.93993703
| 77> H -8.21974405 -3.52007888 -3.51259478
| 78> *
| 79> $new_job
| 80> #
| 81> !wB97X-D3 def2-TZVP def2/J RIJCOSX Grid5 FinalGrid6 TightSCF
| 82> %pal
| 83>  nprocs 24
| 84> end
| 85> %elprop
| 86>    dipole     true
| 87>    quadrupole true
| 88> end
| 89> %tddft
| 90>   Mode sTDDFT
| 91>   nroots 2
| 92>   Ethresh 10.0
| 93>   maxcore 5000
| 94> end
| 95> * xyz 0 1
| 96> C 7.82598602 0.21868174 -3.06185801
| 97> C 7.33458237 0.05200950 -1.76962067
| 98> C 8.24294407 -0.12651165 -0.70889214
| 99> C 9.63563313 -0.11886160 -1.00222754
|100> C 10.13328672 0.04185261 -2.30442462
|101> C 9.20619481 0.20952641 -3.32990404
|102> C 8.12359195 -0.29872246 0.73082178
|103> C 9.45823343 -0.36694806 1.23022625
|104> N 10.34635818 -0.27474689 0.17492637
|105> C 9.76206037 -0.48522481 2.59441630
|106> C 8.69295704 -0.51997825 3.48722219
|107> C 7.37162549 -0.45292737 3.02839442
|108> C 7.04897988 -0.36039100 1.66065297
|109> H 6.56305577 -0.49862036 3.75439919
|110> H 11.35559082 -0.28385831 0.25671547
|111> H 8.88243265 -0.60339257 4.55352269
|112> H 6.26361864 0.05677361 -1.58923772
|113> H 11.20188275 0.04036604 -2.50220101
|114> H 9.55380603 0.33726968 -4.35169222
|115> H 7.12891942 0.35572198 -3.88407010
|116> S 0.64328249 -0.43521593 -0.05733024
|117> C 1.78604345 -0.01501313 1.23072914
|118> N 1.20263262 0.48466232 2.31192352
|119> N -0.15688620 0.56986157 2.20506575
|120> C -0.63100401 0.13771038 1.04217125
|121> C 3.21227198 -0.20410352 1.09783614
|122> N 3.79203716 -0.70809979 0.01631868
|123> N 5.15349386 -0.79157732 0.12163428
|124> C 5.63428052 -0.35076719 1.27396930
|125> S 4.35673988 0.21691767 2.37923981
|126> C -3.86271547 -0.31593811 -0.86309616
|127> C -4.81305323 0.13908875 0.07786568
|128> C -4.35649617 0.59113081 1.33657307
|129> C -3.00210500 0.58831289 1.63763693
|130> C -2.04892958 0.13290622 0.70181106
|131> C -2.50984065 -0.31865067 -0.55115801
|132> N -6.19048873 0.14215967 -0.23314772
|133> C -7.05106931 1.12577324 0.32939126
|134> C -6.59250183 2.44090211 0.54125071
|135> C -7.44259644 3.39686469 1.09284322
|136> C -8.75716900 3.06692305 1.43128933
|137> C -9.21857497 1.76606207 1.21600098
|138> C -8.37701273 0.79738767 0.67363700
|139> C -6.72987134 -0.83794554 -1.11218890
|140> C -6.23080810 -2.15542458 -1.10758499
|141> C -6.76525601 -3.10806064 -1.97223814
|142> C -7.80470942 -2.77242384 -2.84310915
|143> C -8.30789189 -1.46922982 -2.84588025
|144> C -7.77720267 -0.50389000 -1.99313119
|145> H -5.43288077 -2.42774985 -0.42248052
|146> H -6.37442579 -4.12206633 -1.95808924
|147> H -9.11334308 -1.19942586 -3.52388218
|148> H -8.16587961 0.51042631 -2.00789650
|149> H -5.57609571 2.70879089 0.26675230
|150> H -7.07896334 4.40896397 1.24953911
|151> H -9.41641850 3.81714483 1.85792680
|152> H -10.23858551 1.50064128 1.48126363
|153> H -8.73878736 -0.21518421 0.51888359
|154> H -5.07367181 0.93152929 2.07799376
|155> H -2.66406325 0.93021919 2.61182737
|156> H -1.79251005 -0.66486975 -1.29244895
|157> H -4.19178977 -0.65425115 -1.84122332
|158> H 10.79071981 -0.53653101 2.93993703
|159> H -8.21974405 -3.52007888 -3.51259478
|160> *
|161>
|162>                          ****END OF INPUT****
 Total Charge           Charge          ....    0
 Multiplicity           Mult            ....    1
 Number of Electrons    NEL             ....  300
Dispersion correction           -0.031042485
FINAL SINGLE POINT ENERGY     -2433.854544704653

CARTESIAN COORDINATES (ANGSTROEM)
---------------------------------
  C      7.825986    0.218682   -3.061858
  C      7.334582    0.052010   -1.769621
  C      8.242944   -0.126512   -0.708892
  C      9.635633   -0.118862   -1.002228
  C     10.133287    0.041853   -2.304425
  C      9.206195    0.209526   -3.329904
  C      8.123592   -0.298722    0.730822
  C      9.458233   -0.366948    1.230226
  N     10.346358   -0.274747    0.174926
  C      9.762060   -0.485225    2.594416
  C      8.692957   -0.519978    3.487222
  C      7.371625   -0.452927    3.028394
  C      7.048980   -0.360391    1.660653
  H      6.563056   -0.498620    3.754399
  H     11.355591   -0.283858    0.256715
  H      8.882433   -0.603393    4.553523
  H      6.263619    0.056774   -1.589238
  H     11.201883    0.040366   -2.502201
  H      9.553806    0.337270   -4.351692
  H      7.128919    0.355722   -3.884070
  S      0.643282   -0.435216   -0.057330
  C      1.786043   -0.015013    1.230729
  N      1.202633    0.484662    2.311924
  N     -0.156886    0.569862    2.205066
  C     -0.631004    0.137710    1.042171
  C      3.212272   -0.204104    1.097836
  N      3.792037   -0.708100    0.016319
  N      5.153494   -0.791577    0.121634
  C      5.634281   -0.350767    1.273969
  S      4.356740    0.216918    2.379240
  C     -3.862715   -0.315938   -0.863096
  C     -4.813053    0.139089    0.077866
  C     -4.356496    0.591131    1.336573
  C     -3.002105    0.588313    1.637637
  C     -2.048930    0.132906    0.701811
  C     -2.509841   -0.318651   -0.551158
  N     -6.190489    0.142160   -0.233148
  C     -7.051069    1.125773    0.329391
  C     -6.592502    2.440902    0.541251
  C     -7.442596    3.396865    1.092843
  C     -8.757169    3.066923    1.431289
  C     -9.218575    1.766062    1.216001
  C     -8.377013    0.797388    0.673637
  C     -6.729871   -0.837946   -1.112189
  C     -6.230808   -2.155425   -1.107585
  C     -6.765256   -3.108061   -1.972238
  C     -7.804709   -2.772424   -2.843109
  C     -8.307892   -1.469230   -2.845880
  C     -7.777203   -0.503890   -1.993131
  H     -5.432881   -2.427750   -0.422481
  H     -6.374426   -4.122066   -1.958089
  H     -9.113343   -1.199426   -3.523882
  H     -8.165880    0.510426   -2.007897
  H     -5.576096    2.708791    0.266752
  H     -7.078963    4.408964    1.249539
  H     -9.416419    3.817145    1.857927
  H    -10.238586    1.500641    1.481264
  H     -8.738787   -0.215184    0.518884
  H     -5.073672    0.931529    2.077994
  H     -2.664063    0.930219    2.611827
  H     -1.792510   -0.664870   -1.292449
  H     -4.191790   -0.654251   -1.841223
  H     10.790720   -0.536531    2.939937
  H     -8.219744   -3.520079   -3.512595

 Multiplicity           Mult            ....    1
 Number of Electrons    NEL             ....  300
 Basis Dimension        Dim             .... 1446

ORBITAL ENERGIES
----------------

  NO   OCC          E(Eh)            E(eV)
   0   2.0000     -89.005164     -2421.9536
   1   2.0000     -89.004916     -2421.9469
   2   2.0000     -14.472311      -393.8116
   3   2.0000     -14.470496      -393.7622
   4   2.0000     -14.470181      -393.7537
   5   2.0000     -14.470177      -393.7535
   6   2.0000     -14.462091      -393.5335
   7   2.0000     -14.460190      -393.4818
   8   2.0000     -10.376696      -282.3643
   9   2.0000     -10.375122      -282.3214
  10   2.0000     -10.372468      -282.2492
  11   2.0000     -10.371302      -282.2175
  12   2.0000     -10.347629      -281.5733
  13   2.0000     -10.338451      -281.3236
  14   2.0000     -10.338062      -281.3130
  15   2.0000     -10.334028      -281.2032
  16   2.0000     -10.325434      -280.9693
  17   2.0000     -10.319783      -280.8156
  18   2.0000     -10.311516      -280.5906
  19   2.0000     -10.306134      -280.4442
  20   2.0000     -10.304233      -280.3924
  21   2.0000     -10.300037      -280.2783
  22   2.0000     -10.298603      -280.2392
  23   2.0000     -10.296197      -280.1738
  24   2.0000     -10.295316      -280.1498
  25   2.0000     -10.294351      -280.1235
  26   2.0000     -10.293964      -280.1130
  27   2.0000     -10.292675      -280.0779
  28   2.0000     -10.292558      -280.0748
  29   2.0000     -10.292092      -280.0621
  30   2.0000     -10.292075      -280.0616
  31   2.0000     -10.290945      -280.0308
  32   2.0000     -10.290477      -280.0181
  33   2.0000     -10.290404      -280.0161
  34   2.0000     -10.290095      -280.0077
  35   2.0000     -10.288273      -279.9581
  36   2.0000     -10.286852      -279.9195
  37   2.0000     -10.286336      -279.9054
  38   2.0000     -10.283863      -279.8381
  39   2.0000     -10.282904      -279.8120
  40   2.0000     -10.276740      -279.6443
  41   2.0000     -10.270227      -279.4671
  42   2.0000      -8.101394      -220.4502
  43   2.0000      -8.101217      -220.4453
  44   2.0000      -6.054472      -164.7505
  45   2.0000      -6.054265      -164.7449
  46   2.0000      -6.050561      -164.6441
  47   2.0000      -6.050443      -164.6409
  48   2.0000      -6.048472      -164.5873
  49   2.0000      -6.048277      -164.5820
  50   2.0000      -1.153366       -31.3847
  51   2.0000      -1.145218       -31.1630
  52   2.0000      -1.107285       -30.1308
  53   2.0000      -1.101462       -29.9723
  54   2.0000      -0.999670       -27.2024
  55   2.0000      -0.991272       -26.9739
  56   2.0000      -0.984752       -26.7965
  57   2.0000      -0.976172       -26.5630
  58   2.0000      -0.968340       -26.3499
  59   2.0000      -0.962692       -26.1962
  60   2.0000      -0.943987       -25.6872
  61   2.0000      -0.932019       -25.3615
  62   2.0000      -0.912887       -24.8409
  63   2.0000      -0.900908       -24.5150
  64   2.0000      -0.888828       -24.1862
  65   2.0000      -0.886320       -24.1180
  66   2.0000      -0.874442       -23.7948
  67   2.0000      -0.873698       -23.7745
  68   2.0000      -0.869703       -23.6658
  69   2.0000      -0.869036       -23.6477
  70   2.0000      -0.846187       -23.0259
  71   2.0000      -0.840543       -22.8723
  72   2.0000      -0.836512       -22.7626
  73   2.0000      -0.784948       -21.3595
  74   2.0000      -0.772362       -21.0170
  75   2.0000      -0.760421       -20.6921
  76   2.0000      -0.750183       -20.4135
  77   2.0000      -0.732801       -19.9405
  78   2.0000      -0.726729       -19.7753
  79   2.0000      -0.723920       -19.6989
  80   2.0000      -0.720537       -19.6068
  81   2.0000      -0.719859       -19.5884
  82   2.0000      -0.712874       -19.3983
  83   2.0000      -0.701176       -19.0800
  84   2.0000      -0.689351       -18.7582
  85   2.0000      -0.672630       -18.3032
  86   2.0000      -0.661221       -17.9927
  87   2.0000      -0.651016       -17.7150
  88   2.0000      -0.649313       -17.6687
  89   2.0000      -0.640132       -17.4189
  90   2.0000      -0.624482       -16.9930
  91   2.0000      -0.618191       -16.8218
  92   2.0000      -0.614447       -16.7200
  93   2.0000      -0.603577       -16.4242
  94   2.0000      -0.593916       -16.1613
  95   2.0000      -0.582169       -15.8416
  96   2.0000      -0.576214       -15.6796
  97   2.0000      -0.572573       -15.5805
  98   2.0000      -0.567431       -15.4406
  99   2.0000      -0.566599       -15.4180
 100   2.0000      -0.563204       -15.3256
 101   2.0000      -0.558967       -15.2103
 102   2.0000      -0.553120       -15.0512
 103   2.0000      -0.550286       -14.9740
 104   2.0000      -0.542508       -14.7624
 105   2.0000      -0.540628       -14.7112
 106   2.0000      -0.538507       -14.6535
 107   2.0000      -0.536797       -14.6070
 108   2.0000      -0.535787       -14.5795
 109   2.0000      -0.531958       -14.4753
 110   2.0000      -0.529848       -14.4179
 111   2.0000      -0.529281       -14.4025
 112   2.0000      -0.526242       -14.3198
 113   2.0000      -0.523023       -14.2322
 114   2.0000      -0.518388       -14.1061
 115   2.0000      -0.516702       -14.0602
 116   2.0000      -0.497980       -13.5507
 117   2.0000      -0.489652       -13.3241
 118   2.0000      -0.487167       -13.2565
 119   2.0000      -0.483419       -13.1545
 120   2.0000      -0.476503       -12.9663
 121   2.0000      -0.470810       -12.8114
 122   2.0000      -0.467593       -12.7239
 123   2.0000      -0.465626       -12.6703
 124   2.0000      -0.461859       -12.5678
 125   2.0000      -0.457572       -12.4512
 126   2.0000      -0.446405       -12.1473
 127   2.0000      -0.445782       -12.1304
 128   2.0000      -0.445208       -12.1147
 129   2.0000      -0.444401       -12.0928
 130   2.0000      -0.436211       -11.8699
 131   2.0000      -0.432181       -11.7603
 132   2.0000      -0.417457       -11.3596
 133   2.0000      -0.413983       -11.2651
 134   2.0000      -0.398238       -10.8366
 135   2.0000      -0.397139       -10.8067
 136   2.0000      -0.391191       -10.6448
 137   2.0000      -0.383231       -10.4282
 138   2.0000      -0.373745       -10.1701
 139   2.0000      -0.368758       -10.0344
 140   2.0000      -0.364945        -9.9306
 141   2.0000      -0.362171        -9.8552
 142   2.0000      -0.356934        -9.7127
 143   2.0000      -0.349338        -9.5060
 144   2.0000      -0.347606        -9.4588
 145   2.0000      -0.343068        -9.3353
 146   2.0000      -0.324190        -8.8217
 147   2.0000      -0.299960        -8.1623
 148   2.0000      -0.290096        -7.8939
 149   2.0000      -0.270847        -7.3701
 150   0.0000      -0.032072        -0.8727
 151   0.0000       0.002675         0.0728
 152   0.0000       0.028112         0.7650
 153   0.0000       0.035654         0.9702
 154   0.0000       0.039225         1.0674

MULLIKEN ATOMIC CHARGES
-----------------------
   0 C :   -0.174549
   1 C :   -0.128059
   2 C :   -0.022730
   3 C :    0.169823
   4 C :   -0.239044
   5 C :   -0.079074
   6 C :   -0.034449
   7 C :    0.189272
   8 N :   -0.302792
   9 C :   -0.226844
  10 C :   -0.098571
  11 C :   -0.277521
  12 C :    0.131555
  13 H :    0.131500
  14 H :    0.236463
  15 H :    0.127233
  16 H :    0.157513
  17 H :    0.113099
  18 H :    0.121856
  19 H :    0.118214
  20 S :    0.053210
  21 C :    0.101474
  22 N :   -0.189014
  23 N :   -0.135891
  24 C :    0.228660
  25 C :    0.127682
  26 N :   -0.172634
  27 N :   -0.191061
  28 C :    0.147793
  29 S :    0.064740
  30 C :   -0.326248
  31 C :    0.210254
  32 C :   -0.281690
  33 C :   -0.154153
  34 C :   -0.059571
  35 C :   -0.138870
  36 N :    0.056535
  37 C :    0.207104
  38 C :   -0.309000
  39 C :   -0.073459
  40 C :   -0.159546
  41 C :   -0.071889
  42 C :   -0.300859
  43 C :    0.214621
  44 C :   -0.320080
  45 C :   -0.067319
  46 C :   -0.162799
  47 C :   -0.067865
  48 C :   -0.305893
  49 H :    0.160809
  50 H :    0.129212
  51 H :    0.127916
  52 H :    0.162295
  53 H :    0.164167
  54 H :    0.129474
  55 H :    0.124858
  56 H :    0.128303
  57 H :    0.162273
  58 H :    0.166324
  59 H :    0.159586
  60 H :    0.133656
  61 H :    0.167365
  62 H :    0.121506
  63 H :    0.125131
Sum of atomic charges:   -0.0000000

LOEWDIN ATOMIC CHARGES
----------------------
   0 C :   -0.158062
   1 C :   -0.091525
   2 C :   -0.077856
   3 C :   -0.144595
   4 C :   -0.136604
   5 C :   -0.139390
   6 C :   -0.028219
   7 C :   -0.143206
   8 N :    0.201395
   9 C :   -0.118230
  10 C :   -0.141442
  11 C :   -0.123054
  12 C :   -0.115961
  13 H :    0.145531
  14 H :    0.193448
  15 H :    0.147859
  16 H :    0.154103
  17 H :    0.142451
  18 H :    0.144408
  19 H :    0.143894
  20 S :    0.727543
  21 C :   -0.461431
  22 N :    0.046840
  23 N :    0.037624
  24 C :   -0.387565
  25 C :   -0.460085
  26 N :    0.042200
  27 N :    0.047270
  28 C :   -0.374925
  29 S :    0.737502
  30 C :   -0.113069
  31 C :   -0.151919
  32 C :   -0.110243
  33 C :   -0.075198
  34 C :   -0.165534
  35 C :   -0.102161
  36 N :    0.279314
  37 C :   -0.164241
  38 C :   -0.116191
  39 C :   -0.139107
  40 C :   -0.149949
  41 C :   -0.139320
  42 C :   -0.114081
  43 C :   -0.164240
  44 C :   -0.116646
  45 C :   -0.139561
  46 C :   -0.150187
  47 C :   -0.139336
  48 C :   -0.113957
  49 H :    0.156350
  50 H :    0.146959
  51 H :    0.146761
  52 H :    0.156927
  53 H :    0.156553
  54 H :    0.147138
  55 H :    0.144057
  56 H :    0.146764
  57 H :    0.156807
  58 H :    0.159992
  59 H :    0.160043
  60 H :    0.147947
  61 H :    0.159668
  62 H :    0.145672
  63 H :    0.144075

  Mayer bond orders larger than 0.1
B(  0-C ,  1-C ) :   1.5363 B(  0-C ,  5-C ) :   1.3519 B(  0-C , 19-H ) :   0.9863
B(  1-C ,  2-C ) :   1.2740 B(  1-C , 16-H ) :   0.9323 B(  2-C ,  3-C ) :   1.3571
B(  2-C ,  6-C ) :   1.0888 B(  3-C ,  4-C ) :   1.3051 B(  3-C ,  8-N ) :   1.1155
B(  4-C ,  5-C ) :   1.4838 B(  4-C , 17-H ) :   0.9764 B(  5-C , 18-H ) :   0.9812
B(  6-C ,  7-C ) :   1.3264 B(  6-C , 12-C ) :   1.2469 B(  7-C ,  8-N ) :   1.1524
B(  7-C ,  9-C ) :   1.2848 B(  8-N , 14-H ) :   0.9126 B(  9-C , 10-C ) :   1.4675
B(  9-C , 62-H ) :   0.9749 B( 10-C , 11-C ) :   1.4212 B( 10-C , 15-H ) :   0.9805
B( 11-C , 12-C ) :   1.4030 B( 11-C , 13-H ) :   0.9579 B( 12-C , 28-C ) :   0.9474
B( 20-S , 21-C ) :   1.2986 B( 20-S , 24-C ) :   1.2831 B( 21-C , 22-N ) :   1.7164
B( 21-C , 25-C ) :   0.9436 B( 22-N , 23-N ) :   1.1603 B( 23-N , 24-C ) :   1.6882
B( 24-C , 34-C ) :   0.9652 B( 25-C , 26-N ) :   1.7030 B( 25-C , 29-S ) :   1.3034
B( 26-N , 27-N ) :   1.1200 B( 27-N , 28-C ) :   1.6467 B( 28-C , 29-S ) :   1.2872
B( 30-C , 31-C ) :   1.3357 B( 30-C , 35-C ) :   1.5108 B( 30-C , 61-H ) :   0.9736
B( 31-C , 32-C ) :   1.3167 B( 31-C , 36-N ) :   1.0822 B( 32-C , 33-C ) :   1.4659
B( 32-C , 58-H ) :   0.9796 B( 33-C , 34-C ) :   1.4069 B( 33-C , 59-H ) :   0.9617
B( 34-C , 35-C ) :   1.3261 B( 35-C , 60-H ) :   0.9551 B( 36-N , 37-C ) :   1.0178
B( 36-N , 43-C ) :   1.0126 B( 37-C , 38-C ) :   1.3447 B( 37-C , 42-C ) :   1.3545
B( 38-C , 39-C ) :   1.4365 B( 38-C , 53-H ) :   0.9684 B( 39-C , 40-C ) :   1.3999
B( 39-C , 54-H ) :   0.9780 B( 40-C , 41-C ) :   1.3985 B( 40-C , 55-H ) :   0.9816
B( 41-C , 42-C ) :   1.4346 B( 41-C , 56-H ) :   0.9787 B( 42-C , 57-H ) :   0.9680
B( 43-C , 44-C ) :   1.3377 B( 43-C , 48-C ) :   1.3553 B( 44-C , 45-C ) :   1.4304
B( 44-C , 49-H ) :   0.9742 B( 45-C , 46-C ) :   1.4000 B( 45-C , 50-H ) :   0.9783
B( 46-C , 47-C ) :   1.3955 B( 46-C , 63-H ) :   0.9819 B( 47-C , 48-C ) :   1.4339
B( 47-C , 51-H ) :   0.9791 B( 48-C , 52-H ) :   0.9688

Dispersion correction           -0.031042485
FINAL SINGLE POINT ENERGY     -2433.854544583602

DIPOLE MOMENT
-------------
                                X             Y             Z
Electronic contribution:     31.69675      -1.33959      10.01066
Nuclear contribution   :    -31.69465       1.35980     -10.19086
                        -----------------------------------------
Total Dipole Moment    :      0.00210       0.02020      -0.18020
                        -----------------------------------------
Magnitude (a.u.)       :      0.18134
Magnitude (Debye)      :      0.46093

                             ****ORCA TERMINATED NORMALLY****
TOTAL RUN TIME: 0 days 0 hours 23 minutes 11 seconds 970 msec
