                         Program Version 4.0.0 -  RELEASE  -
|  1> #
|  2> !wB97X-D3 def2-TZVP def2/J RIJCOSX Grid5 FinalGrid6 TightSCF
|  3> %pal
|  4>  nprocs 24
|  5> end
|  6> %tddft
|  7>   Mode sTDDFT
|  8>   nroots 2
|  9>   Ethresh 10.0
| 10>   maxcore 5000
| 11>   triplets true
| 12> end
| 13> * xyz 0 1
| 14> C 7.28219518 0.43967471 -3.07260901
| 15> C 6.43696426 0.25650140 -1.98128554
| 16> C 6.96259910 -0.27628165 -0.78852940
| 17> C 8.34116445 -0.62907128 -0.75584946
| 18> C 9.19625067 -0.44008337 -1.85233521
| 19> C 8.64583807 0.10318141 -3.01013047
| 20> C 6.41505131 -0.62943766 0.51253877
| 21> C 7.49259240 -1.20227701 1.25112645
| 22> N 8.63952230 -1.17424695 0.48065246
| 23> C 7.34388237 -1.71792925 2.54729202
| 24> C 6.07251222 -1.66945226 3.11434132
| 25> C 4.99533786 -1.10646233 2.41749484
| 26> C 5.13587869 -0.56175553 1.12724935
| 27> H 4.02172883 -1.06369037 2.89823645
| 28> H 9.54417222 -1.53028734 0.76400177
| 29> H 5.91154362 -2.06488432 4.11308004
| 30> H 5.38779985 0.52035137 -2.06455524
| 31> H 10.24644723 -0.71423171 -1.79977585
| 32> H 9.27674450 0.26336061 -3.88027657
| 33> H 6.88065022 0.85163510 -3.99419110
| 34> C -1.67376220 1.02710298 -0.37405523
| 35> N -1.22990086 1.97123238 -1.22084773
| 36> O 0.12788692 1.92978374 -1.17579423
| 37> C 0.53485311 0.98010181 -0.31924773
| 38> C -0.56855623 0.35954510 0.23246115
| 39> C 1.96424404 0.77568336 -0.12831633
| 40> N 2.88310028 1.50611042 -0.77715494
| 41> O 4.09668905 1.05184115 -0.36818092
| 42> C 3.95305258 0.05388244 0.51627879
| 43> C 2.60360367 -0.16879508 0.72503786
| 44> H 2.14232833 -0.90531028 1.36661410
| 45> H -0.58641968 -0.44375939 0.95524804
| 46> C -4.15254803 1.44603298 -0.76579278
| 47> C -5.41727473 0.94477509 -0.34632162
| 48> C -5.33513625 -0.08757857 0.58709977
| 49> S -3.65410224 -0.46079128 0.94528299
| 50> C -3.09212437 0.78718203 -0.16487204
| 51> C -6.54264336 -0.61003607 1.15900210
| 52> C -7.76663515 -0.18023209 0.66852397
| 53> C -7.85238119 0.72337283 -0.55879245
| 54> O -6.59194873 1.47283929 -0.77449735
| 55> C -8.86867114 -0.75601752 1.37328609
| 56> C -8.48465062 -1.59782251 2.38870134
| 57> S -6.73874431 -1.71056106 2.50638012
| 58> C -8.94669122 1.79341415 -0.41205860
| 59> H -4.01944525 2.25150918 -1.47866218
| 60> H -9.90672081 -0.55215127 1.13325845
| 61> H -8.94968304 2.45491420 -1.27484594
| 62> H -9.92761836 1.33109568 -0.33252637
| 63> H -8.77939616 2.39430878 0.47817490
| 64> C -8.08398086 -0.12665225 -1.83251153
| 65> H -7.27538374 -0.84223948 -1.96100162
| 66> H -8.12452677 0.50648503 -2.71575635
| 67> H -9.01858487 -0.67768784 -1.75876300
| 68> H 8.18639410 -2.14681873 3.08231882
| 69> H -9.13369724 -2.14917276 3.05575484
| 70> *
| 71> $new_job
| 72> #
| 73> !wB97X-D3 def2-TZVP def2/J RIJCOSX Grid5 FinalGrid6 TightSCF
| 74> %pal
| 75>  nprocs 24
| 76> end
| 77> %elprop
| 78>    dipole     true
| 79>    quadrupole true
| 80> end
| 81> %tddft
| 82>   Mode sTDDFT
| 83>   nroots 2
| 84>   Ethresh 10.0
| 85>   maxcore 5000
| 86> end
| 87> * xyz 0 1
| 88> C 7.28219518 0.43967471 -3.07260901
| 89> C 6.43696426 0.25650140 -1.98128554
| 90> C 6.96259910 -0.27628165 -0.78852940
| 91> C 8.34116445 -0.62907128 -0.75584946
| 92> C 9.19625067 -0.44008337 -1.85233521
| 93> C 8.64583807 0.10318141 -3.01013047
| 94> C 6.41505131 -0.62943766 0.51253877
| 95> C 7.49259240 -1.20227701 1.25112645
| 96> N 8.63952230 -1.17424695 0.48065246
| 97> C 7.34388237 -1.71792925 2.54729202
| 98> C 6.07251222 -1.66945226 3.11434132
| 99> C 4.99533786 -1.10646233 2.41749484
|100> C 5.13587869 -0.56175553 1.12724935
|101> H 4.02172883 -1.06369037 2.89823645
|102> H 9.54417222 -1.53028734 0.76400177
|103> H 5.91154362 -2.06488432 4.11308004
|104> H 5.38779985 0.52035137 -2.06455524
|105> H 10.24644723 -0.71423171 -1.79977585
|106> H 9.27674450 0.26336061 -3.88027657
|107> H 6.88065022 0.85163510 -3.99419110
|108> C -1.67376220 1.02710298 -0.37405523
|109> N -1.22990086 1.97123238 -1.22084773
|110> O 0.12788692 1.92978374 -1.17579423
|111> C 0.53485311 0.98010181 -0.31924773
|112> C -0.56855623 0.35954510 0.23246115
|113> C 1.96424404 0.77568336 -0.12831633
|114> N 2.88310028 1.50611042 -0.77715494
|115> O 4.09668905 1.05184115 -0.36818092
|116> C 3.95305258 0.05388244 0.51627879
|117> C 2.60360367 -0.16879508 0.72503786
|118> H 2.14232833 -0.90531028 1.36661410
|119> H -0.58641968 -0.44375939 0.95524804
|120> C -4.15254803 1.44603298 -0.76579278
|121> C -5.41727473 0.94477509 -0.34632162
|122> C -5.33513625 -0.08757857 0.58709977
|123> S -3.65410224 -0.46079128 0.94528299
|124> C -3.09212437 0.78718203 -0.16487204
|125> C -6.54264336 -0.61003607 1.15900210
|126> C -7.76663515 -0.18023209 0.66852397
|127> C -7.85238119 0.72337283 -0.55879245
|128> O -6.59194873 1.47283929 -0.77449735
|129> C -8.86867114 -0.75601752 1.37328609
|130> C -8.48465062 -1.59782251 2.38870134
|131> S -6.73874431 -1.71056106 2.50638012
|132> C -8.94669122 1.79341415 -0.41205860
|133> H -4.01944525 2.25150918 -1.47866218
|134> H -9.90672081 -0.55215127 1.13325845
|135> H -8.94968304 2.45491420 -1.27484594
|136> H -9.92761836 1.33109568 -0.33252637
|137> H -8.77939616 2.39430878 0.47817490
|138> C -8.08398086 -0.12665225 -1.83251153
|139> H -7.27538374 -0.84223948 -1.96100162
|140> H -8.12452677 0.50648503 -2.71575635
|141> H -9.01858487 -0.67768784 -1.75876300
|142> H 8.18639410 -2.14681873 3.08231882
|143> H -9.13369724 -2.14917276 3.05575484
|144> *
|145>
|146>                          ****END OF INPUT****
 Total Charge           Charge          ....    0
 Multiplicity           Mult            ....    1
 Number of Electrons    NEL             ....  270
Dispersion correction           -0.026841203
FINAL SINGLE POINT ENERGY     -2302.885551021249

CARTESIAN COORDINATES (ANGSTROEM)
---------------------------------
  C      7.282195    0.439675   -3.072609
  C      6.436964    0.256501   -1.981286
  C      6.962599   -0.276282   -0.788529
  C      8.341164   -0.629071   -0.755849
  C      9.196251   -0.440083   -1.852335
  C      8.645838    0.103181   -3.010130
  C      6.415051   -0.629438    0.512539
  C      7.492592   -1.202277    1.251126
  N      8.639522   -1.174247    0.480652
  C      7.343882   -1.717929    2.547292
  C      6.072512   -1.669452    3.114341
  C      4.995338   -1.106462    2.417495
  C      5.135879   -0.561756    1.127249
  H      4.021729   -1.063690    2.898236
  H      9.544172   -1.530287    0.764002
  H      5.911544   -2.064884    4.113080
  H      5.387800    0.520351   -2.064555
  H     10.246447   -0.714232   -1.799776
  H      9.276744    0.263361   -3.880277
  H      6.880650    0.851635   -3.994191
  C     -1.673762    1.027103   -0.374055
  N     -1.229901    1.971232   -1.220848
  O      0.127887    1.929784   -1.175794
  C      0.534853    0.980102   -0.319248
  C     -0.568556    0.359545    0.232461
  C      1.964244    0.775683   -0.128316
  N      2.883100    1.506110   -0.777155
  O      4.096689    1.051841   -0.368181
  C      3.953053    0.053882    0.516279
  C      2.603604   -0.168795    0.725038
  H      2.142328   -0.905310    1.366614
  H     -0.586420   -0.443759    0.955248
  C     -4.152548    1.446033   -0.765793
  C     -5.417275    0.944775   -0.346322
  C     -5.335136   -0.087579    0.587100
  S     -3.654102   -0.460791    0.945283
  C     -3.092124    0.787182   -0.164872
  C     -6.542643   -0.610036    1.159002
  C     -7.766635   -0.180232    0.668524
  C     -7.852381    0.723373   -0.558792
  O     -6.591949    1.472839   -0.774497
  C     -8.868671   -0.756018    1.373286
  C     -8.484651   -1.597823    2.388701
  S     -6.738744   -1.710561    2.506380
  C     -8.946691    1.793414   -0.412059
  H     -4.019445    2.251509   -1.478662
  H     -9.906721   -0.552151    1.133258
  H     -8.949683    2.454914   -1.274846
  H     -9.927618    1.331096   -0.332526
  H     -8.779396    2.394309    0.478175
  C     -8.083981   -0.126652   -1.832512
  H     -7.275384   -0.842239   -1.961002
  H     -8.124527    0.506485   -2.715756
  H     -9.018585   -0.677688   -1.758763
  H      8.186394   -2.146819    3.082319
  H     -9.133697   -2.149173    3.055755

 Multiplicity           Mult            ....    1
 Number of Electrons    NEL             ....  270
 Basis Dimension        Dim             .... 1273

ORBITAL ENERGIES
----------------

  NO   OCC          E(Eh)            E(eV)
   0   2.0000     -88.991093     -2421.5708
   1   2.0000     -88.989317     -2421.5224
   2   2.0000     -19.340515      -526.2822
   3   2.0000     -19.334876      -526.1287
   4   2.0000     -19.269582      -524.3520
   5   2.0000     -14.484200      -394.1351
   6   2.0000     -14.478497      -393.9799
   7   2.0000     -14.473305      -393.8386
   8   2.0000     -10.372313      -282.2450
   9   2.0000     -10.370953      -282.2080
  10   2.0000     -10.370810      -282.2041
  11   2.0000     -10.354193      -281.7519
  12   2.0000     -10.346691      -281.5478
  13   2.0000     -10.342080      -281.4223
  14   2.0000     -10.336905      -281.2815
  15   2.0000     -10.336288      -281.2647
  16   2.0000     -10.332644      -281.1655
  17   2.0000     -10.329447      -281.0785
  18   2.0000     -10.324422      -280.9418
  19   2.0000     -10.321201      -280.8542
  20   2.0000     -10.318968      -280.7934
  21   2.0000     -10.306747      -280.4608
  22   2.0000     -10.304538      -280.4007
  23   2.0000     -10.303505      -280.3726
  24   2.0000     -10.300691      -280.2960
  25   2.0000     -10.300164      -280.2817
  26   2.0000     -10.297815      -280.2178
  27   2.0000     -10.297694      -280.2145
  28   2.0000     -10.296816      -280.1906
  29   2.0000     -10.295475      -280.1541
  30   2.0000     -10.293472      -280.0996
  31   2.0000     -10.288076      -279.9528
  32   2.0000     -10.286735      -279.9163
  33   2.0000     -10.283977      -279.8412
  34   2.0000     -10.277250      -279.6582
  35   2.0000     -10.275271      -279.6044
  36   2.0000     -10.273834      -279.5652
  37   2.0000      -8.087018      -220.0589
  38   2.0000      -8.085415      -220.0153
  39   2.0000      -6.040430      -164.3685
  40   2.0000      -6.038809      -164.3243
  41   2.0000      -6.036537      -164.2625
  42   2.0000      -6.034610      -164.2101
  43   2.0000      -6.033703      -164.1854
  44   2.0000      -6.032409      -164.1502
  45   2.0000      -1.289646       -35.0930
  46   2.0000      -1.282211       -34.8907
  47   2.0000      -1.184280       -32.2259
  48   2.0000      -1.110763       -30.2254
  49   2.0000      -1.021273       -27.7902
  50   2.0000      -1.012752       -27.5584
  51   2.0000      -1.004794       -27.3418
  52   2.0000      -0.987310       -26.8661
  53   2.0000      -0.977190       -26.5907
  54   2.0000      -0.967599       -26.3297
  55   2.0000      -0.940650       -25.5964
  56   2.0000      -0.929091       -25.2819
  57   2.0000      -0.919605       -25.0237
  58   2.0000      -0.905384       -24.6368
  59   2.0000      -0.893372       -24.3099
  60   2.0000      -0.875315       -23.8185
  61   2.0000      -0.859818       -23.3969
  62   2.0000      -0.849737       -23.1225
  63   2.0000      -0.844194       -22.9717
  64   2.0000      -0.842171       -22.9166
  65   2.0000      -0.823330       -22.4040
  66   2.0000      -0.817258       -22.2387
  67   2.0000      -0.781015       -21.2525
  68   2.0000      -0.771955       -21.0060
  69   2.0000      -0.755676       -20.5630
  70   2.0000      -0.737921       -20.0799
  71   2.0000      -0.729804       -19.8590
  72   2.0000      -0.725311       -19.7367
  73   2.0000      -0.718273       -19.5452
  74   2.0000      -0.712236       -19.3809
  75   2.0000      -0.705407       -19.1951
  76   2.0000      -0.698090       -18.9960
  77   2.0000      -0.668690       -18.1960
  78   2.0000      -0.666662       -18.1408
  79   2.0000      -0.653340       -17.7783
  80   2.0000      -0.632351       -17.2072
  81   2.0000      -0.629989       -17.1429
  82   2.0000      -0.618962       -16.8428
  83   2.0000      -0.612244       -16.6600
  84   2.0000      -0.608540       -16.5592
  85   2.0000      -0.602083       -16.3835
  86   2.0000      -0.591577       -16.0976
  87   2.0000      -0.586466       -15.9586
  88   2.0000      -0.573755       -15.6127
  89   2.0000      -0.572791       -15.5864
  90   2.0000      -0.567928       -15.4541
  91   2.0000      -0.565883       -15.3985
  92   2.0000      -0.561648       -15.2832
  93   2.0000      -0.555130       -15.1059
  94   2.0000      -0.551064       -14.9952
  95   2.0000      -0.543363       -14.7857
  96   2.0000      -0.539157       -14.6712
  97   2.0000      -0.533620       -14.5205
  98   2.0000      -0.531874       -14.4730
  99   2.0000      -0.526779       -14.3344
 100   2.0000      -0.522123       -14.2077
 101   2.0000      -0.514692       -14.0055
 102   2.0000      -0.511487       -13.9183
 103   2.0000      -0.508520       -13.8375
 104   2.0000      -0.502940       -13.6857
 105   2.0000      -0.499802       -13.6003
 106   2.0000      -0.495676       -13.4880
 107   2.0000      -0.482734       -13.1359
 108   2.0000      -0.479775       -13.0553
 109   2.0000      -0.476285       -12.9604
 110   2.0000      -0.471932       -12.8419
 111   2.0000      -0.470887       -12.8135
 112   2.0000      -0.468468       -12.7477
 113   2.0000      -0.464317       -12.6347
 114   2.0000      -0.456632       -12.4256
 115   2.0000      -0.450358       -12.2549
 116   2.0000      -0.448696       -12.2096
 117   2.0000      -0.447219       -12.1695
 118   2.0000      -0.443057       -12.0562
 119   2.0000      -0.437809       -11.9134
 120   2.0000      -0.429548       -11.6886
 121   2.0000      -0.416536       -11.3345
 122   2.0000      -0.415221       -11.2987
 123   2.0000      -0.407833       -11.0977
 124   2.0000      -0.404640       -11.0108
 125   2.0000      -0.394903       -10.7459
 126   2.0000      -0.374541       -10.1918
 127   2.0000      -0.363919        -9.9027
 128   2.0000      -0.346196        -9.4205
 129   2.0000      -0.345594        -9.4041
 130   2.0000      -0.336582        -9.1589
 131   2.0000      -0.328259        -8.9324
 132   2.0000      -0.303963        -8.2713
 133   2.0000      -0.292895        -7.9701
 134   2.0000      -0.271010        -7.3745
 135   0.0000      -0.006772        -0.1843
 136   0.0000      -0.000117        -0.0032
 137   0.0000       0.022728         0.6185
 138   0.0000       0.047698         1.2979
 139   0.0000       0.062216         1.6930

MULLIKEN ATOMIC CHARGES
-----------------------
   0 C :   -0.176835
   1 C :   -0.133280
   2 C :   -0.042176
   3 C :    0.169397
   4 C :   -0.234227
   5 C :   -0.078878
   6 C :   -0.022095
   7 C :    0.178551
   8 N :   -0.301518
   9 C :   -0.227075
  10 C :   -0.087021
  11 C :   -0.289341
  12 C :    0.060452
  13 H :    0.119886
  14 H :    0.237842
  15 H :    0.125698
  16 H :    0.153498
  17 H :    0.115916
  18 H :    0.123990
  19 H :    0.122913
  20 C :    0.283931
  21 N :   -0.149068
  22 O :   -0.097314
  23 C :    0.208345
  24 C :   -0.291196
  25 C :    0.131940
  26 N :   -0.161230
  27 O :   -0.127647
  28 C :    0.306197
  29 C :   -0.268387
  30 H :    0.164025
  31 H :    0.167066
  32 C :   -0.375973
  33 C :    0.296064
  34 C :    0.064410
  35 S :    0.020141
  36 C :   -0.008305
  37 C :   -0.152821
  38 C :    0.006281
  39 C :    0.147602
  40 O :   -0.286879
  41 C :   -0.215597
  42 C :   -0.193405
  43 S :    0.065266
  44 C :   -0.357962
  45 H :    0.162460
  46 H :    0.139942
  47 H :    0.140017
  48 H :    0.112720
  49 H :    0.139385
  50 C :   -0.362141
  51 H :    0.139233
  52 H :    0.132221
  53 H :    0.122072
  54 H :    0.120667
  55 H :    0.162241
Sum of atomic charges:    0.0000000

LOEWDIN ATOMIC CHARGES
----------------------
   0 C :   -0.155339
   1 C :   -0.095636
   2 C :   -0.080644
   3 C :   -0.144423
   4 C :   -0.133866
   5 C :   -0.138245
   6 C :   -0.033983
   7 C :   -0.143021
   8 N :    0.201995
   9 C :   -0.120471
  10 C :   -0.140860
  11 C :   -0.108602
  12 C :   -0.082274
  13 H :    0.149723
  14 H :    0.193959
  15 H :    0.147560
  16 H :    0.152591
  17 H :    0.143182
  18 H :    0.145242
  19 H :    0.145350
  20 C :   -0.255896
  21 N :    0.044402
  22 O :    0.316631
  23 C :   -0.218457
  24 C :   -0.125220
  25 C :   -0.227944
  26 N :    0.048308
  27 O :    0.311682
  28 C :   -0.197786
  29 C :   -0.120745
  30 H :    0.148678
  31 H :    0.147238
  32 C :   -0.105372
  33 C :   -0.255656
  34 C :   -0.350626
  35 S :    0.722891
  36 C :   -0.317956
  37 C :   -0.336678
  38 C :   -0.124198
  39 C :   -0.287791
  40 O :    0.278743
  41 C :   -0.175440
  42 C :   -0.377485
  43 S :    0.704250
  44 C :   -0.245993
  45 H :    0.158515
  46 H :    0.146240
  47 H :    0.128364
  48 H :    0.125113
  49 H :    0.129037
  50 C :   -0.245385
  51 H :    0.129436
  52 H :    0.125301
  53 H :    0.126407
  54 H :    0.145606
  55 H :    0.129551

  Mayer bond orders larger than 0.1
B(  0-C ,  1-C ) :   1.5371 B(  0-C ,  5-C ) :   1.3544 B(  0-C , 19-H ) :   0.9863
B(  1-C ,  2-C ) :   1.2657 B(  1-C , 16-H ) :   0.9355 B(  2-C ,  3-C ) :   1.3610
B(  2-C ,  6-C ) :   1.0683 B(  3-C ,  4-C ) :   1.3053 B(  3-C ,  8-N ) :   1.1173
B(  4-C ,  5-C ) :   1.4825 B(  4-C , 17-H ) :   0.9755 B(  5-C , 18-H ) :   0.9811
B(  6-C ,  7-C ) :   1.3209 B(  6-C , 12-C ) :   1.2449 B(  7-C ,  8-N ) :   1.1580
B(  7-C ,  9-C ) :   1.2914 B(  8-N , 14-H ) :   0.9122 B(  9-C , 10-C ) :   1.4617
B(  9-C , 54-H ) :   0.9740 B( 10-C , 11-C ) :   1.4113 B( 10-C , 15-H ) :   0.9828
B( 11-C , 12-C ) :   1.4319 B( 11-C , 13-H ) :   0.9751 B( 12-C , 28-C ) :   0.9621
B( 20-C , 21-N ) :   1.6614 B( 20-C , 24-C ) :   1.2435 B( 20-C , 35-S ) :  -0.1578
B( 20-C , 36-C ) :   0.9139 B( 21-N , 22-O ) :   0.9903 B( 21-N , 23-C ) :   0.1183
B( 22-O , 23-C ) :   1.2287 B( 23-C , 24-C ) :   1.6366 B( 23-C , 25-C ) :   1.0111
B( 24-C , 31-H ) :   0.9038 B( 25-C , 26-N ) :   1.6565 B( 25-C , 29-C ) :   1.2854
B( 26-N , 27-O ) :   0.9866 B( 26-N , 28-C ) :   0.1266 B( 27-O , 28-C ) :   1.1718
B( 28-C , 29-C ) :   1.6032 B( 29-C , 30-H ) :   0.9216 B( 32-C , 33-C ) :   1.2596
B( 32-C , 35-S ) :   0.1202 B( 32-C , 36-C ) :   1.5877 B( 32-C , 45-H ) :   0.9655
B( 33-C , 34-C ) :   1.4392 B( 33-C , 40-O ) :   1.1667 B( 34-C , 35-S ) :   1.2753
B( 34-C , 37-C ) :   0.9101 B( 35-S , 36-C ) :   1.3149 B( 37-C , 38-C ) :   1.5334
B( 37-C , 43-S ) :   1.3359 B( 38-C , 39-C ) :   0.9657 B( 38-C , 41-C ) :   1.1960
B( 39-C , 40-O ) :   0.8719 B( 39-C , 44-C ) :   0.9557 B( 39-C , 50-C ) :   1.0059
B( 41-C , 42-C ) :   1.7354 B( 41-C , 43-S ) :   0.1293 B( 41-C , 46-H ) :   0.9547
B( 42-C , 43-S ) :   1.2339 B( 42-C , 55-H ) :   0.9433 B( 44-C , 47-H ) :   0.9748
B( 44-C , 48-H ) :   0.9610 B( 44-C , 49-H ) :   0.9799 B( 50-C , 51-H ) :   0.9642
B( 50-C , 52-H ) :   0.9723 B( 50-C , 53-H ) :   0.9639

Dispersion correction           -0.026841203
FINAL SINGLE POINT ENERGY     -2302.885550970168

DIPOLE MOMENT
-------------
                                X             Y             Z
Electronic contribution:     11.72205       0.58923       7.23430
Nuclear contribution   :    -11.49711      -2.44243      -5.94249
                        -----------------------------------------
Total Dipole Moment    :      0.22494      -1.85319       1.29181
                        -----------------------------------------
Magnitude (a.u.)       :      2.27017
Magnitude (Debye)      :      5.77032

                             ****ORCA TERMINATED NORMALLY****
TOTAL RUN TIME: 0 days 0 hours 15 minutes 37 seconds 80 msec
