                         Program Version 4.0.0 -  RELEASE  -
|  1> #
|  2> !wB97X-D3 def2-TZVP def2/J RIJCOSX Grid5 FinalGrid6 TightSCF
|  3> %pal
|  4>  nprocs 24
|  5> end
|  6> %tddft
|  7>   Mode sTDDFT
|  8>   nroots 2
|  9>   Ethresh 10.0
| 10>   maxcore 5000
| 11>   triplets true
| 12> end
| 13> * xyz 0 1
| 14> C -8.78368008 3.23570696 -1.39424295
| 15> C -7.58000059 2.57913016 -1.31836482
| 16> C -7.41906804 1.46451287 -0.43355374
| 17> C -8.53619729 1.05187089 0.38087415
| 18> C -9.77413003 1.76466562 0.26946533
| 19> C -9.88848060 2.82431865 -0.59605641
| 20> N -6.22711609 0.81997058 -0.37453147
| 21> C -6.12074390 -0.23136565 0.47094129
| 22> C -7.23400334 -0.62186834 1.31050859
| 23> N -8.42722298 0.01974668 1.25231172
| 24> C -7.07106781 -1.70704266 2.22994338
| 25> C -5.86658617 -2.36177884 2.31393138
| 26> C -4.77498628 -1.99010439 1.48837044
| 27> C -4.87090643 -0.95940722 0.56630940
| 28> H -3.84720622 -2.55045738 1.57068025
| 29> H -5.73975094 -3.18505448 3.01240697
| 30> H -7.91020989 -1.99971502 2.85520388
| 31> H -10.82902664 3.36316821 -0.67888096
| 32> H -6.73731229 2.89286767 -1.92961068
| 33> H -8.90435297 4.07974017 -2.06862066
| 34> S 1.04222879 -0.08009432 -2.09650909
| 35> C 0.01886955 -0.59084898 -0.76085283
| 36> C 0.78747739 -1.04573598 0.29121703
| 37> C 2.20294792 -0.98516418 0.04952676
| 38> C 2.49172664 -0.48455511 -1.21019908
| 39> C -1.42313695 -0.50498492 -0.84315853
| 40> C -2.35484050 -0.86189194 0.11081703
| 41> C -3.71447431 -0.62999224 -0.29071851
| 42> C -3.79651191 -0.10312717 -1.56789734
| 43> S -2.22163049 0.11439426 -2.28324456
| 44> H -2.07623892 -1.25289671 1.08367764
| 45> H 0.35948048 -1.40336954 1.22254144
| 46> H -4.70016877 0.13343947 -2.11370362
| 47> H 3.46550055 -0.37735271 -1.66735338
| 48> C 5.14326762 -1.73854054 2.29820022
| 49> C 4.29630811 -2.54968776 3.00544392
| 50> S 2.69446040 -2.53917981 2.31797204
| 51> C 3.18675846 -1.42456827 1.03934978
| 52> C 4.52608811 -1.08956786 1.17969879
| 53> C 5.29620265 -0.13609649 0.30118416
| 54> C 6.04787886 -0.86375711 -0.82837930
| 55> C 6.75632560 0.08392186 -1.81146146
| 56> C 8.22747588 0.36660155 -1.48136618
| 57> C 8.48011366 1.09095925 -0.15453773
| 58> C 7.85328622 2.47688970 -0.08711438
| 59> H 6.18623204 -1.59215320 2.55904294
| 60> H 6.76940918 2.42232401 -0.15879787
| 61> H 8.20972965 3.10424493 -0.90118694
| 62> H 8.10240344 2.96710098 0.85125698
| 63> H 6.01299264 0.41283347 0.91882976
| 64> H 4.62218737 0.61086331 -0.13122489
| 65> H 5.33068250 -1.48040140 -1.37995459
| 66> H 6.77010145 -1.55894427 -0.39028618
| 67> H 6.20303600 1.02559100 -1.88038966
| 68> H 6.72196158 -0.36011919 -2.81191774
| 69> H 8.11310332 0.47973421 0.67553999
| 70> H 9.56218067 1.18026351 -0.01147700
| 71> H 8.77508517 -0.58207848 -1.47033988
| 72> H 8.65573823 0.96045339 -2.29609191
| 73> H -10.61843563 1.45321535 0.87939420
| 74> H 4.53654597 -3.13652652 3.88248486
| 75> *
| 76> $new_job
| 77> #
| 78> !wB97X-D3 def2-TZVP def2/J RIJCOSX Grid5 FinalGrid6 TightSCF
| 79> %pal
| 80>  nprocs 24
| 81> end
| 82> %elprop
| 83>    dipole     true
| 84>    quadrupole true
| 85> end
| 86> %tddft
| 87>   Mode sTDDFT
| 88>   nroots 2
| 89>   Ethresh 10.0
| 90>   maxcore 5000
| 91> end
| 92> * xyz 0 1
| 93> C -8.78368008 3.23570696 -1.39424295
| 94> C -7.58000059 2.57913016 -1.31836482
| 95> C -7.41906804 1.46451287 -0.43355374
| 96> C -8.53619729 1.05187089 0.38087415
| 97> C -9.77413003 1.76466562 0.26946533
| 98> C -9.88848060 2.82431865 -0.59605641
| 99> N -6.22711609 0.81997058 -0.37453147
|100> C -6.12074390 -0.23136565 0.47094129
|101> C -7.23400334 -0.62186834 1.31050859
|102> N -8.42722298 0.01974668 1.25231172
|103> C -7.07106781 -1.70704266 2.22994338
|104> C -5.86658617 -2.36177884 2.31393138
|105> C -4.77498628 -1.99010439 1.48837044
|106> C -4.87090643 -0.95940722 0.56630940
|107> H -3.84720622 -2.55045738 1.57068025
|108> H -5.73975094 -3.18505448 3.01240697
|109> H -7.91020989 -1.99971502 2.85520388
|110> H -10.82902664 3.36316821 -0.67888096
|111> H -6.73731229 2.89286767 -1.92961068
|112> H -8.90435297 4.07974017 -2.06862066
|113> S 1.04222879 -0.08009432 -2.09650909
|114> C 0.01886955 -0.59084898 -0.76085283
|115> C 0.78747739 -1.04573598 0.29121703
|116> C 2.20294792 -0.98516418 0.04952676
|117> C 2.49172664 -0.48455511 -1.21019908
|118> C -1.42313695 -0.50498492 -0.84315853
|119> C -2.35484050 -0.86189194 0.11081703
|120> C -3.71447431 -0.62999224 -0.29071851
|121> C -3.79651191 -0.10312717 -1.56789734
|122> S -2.22163049 0.11439426 -2.28324456
|123> H -2.07623892 -1.25289671 1.08367764
|124> H 0.35948048 -1.40336954 1.22254144
|125> H -4.70016877 0.13343947 -2.11370362
|126> H 3.46550055 -0.37735271 -1.66735338
|127> C 5.14326762 -1.73854054 2.29820022
|128> C 4.29630811 -2.54968776 3.00544392
|129> S 2.69446040 -2.53917981 2.31797204
|130> C 3.18675846 -1.42456827 1.03934978
|131> C 4.52608811 -1.08956786 1.17969879
|132> C 5.29620265 -0.13609649 0.30118416
|133> C 6.04787886 -0.86375711 -0.82837930
|134> C 6.75632560 0.08392186 -1.81146146
|135> C 8.22747588 0.36660155 -1.48136618
|136> C 8.48011366 1.09095925 -0.15453773
|137> C 7.85328622 2.47688970 -0.08711438
|138> H 6.18623204 -1.59215320 2.55904294
|139> H 6.76940918 2.42232401 -0.15879787
|140> H 8.20972965 3.10424493 -0.90118694
|141> H 8.10240344 2.96710098 0.85125698
|142> H 6.01299264 0.41283347 0.91882976
|143> H 4.62218737 0.61086331 -0.13122489
|144> H 5.33068250 -1.48040140 -1.37995459
|145> H 6.77010145 -1.55894427 -0.39028618
|146> H 6.20303600 1.02559100 -1.88038966
|147> H 6.72196158 -0.36011919 -2.81191774
|148> H 8.11310332 0.47973421 0.67553999
|149> H 9.56218067 1.18026351 -0.01147700
|150> H 8.77508517 -0.58207848 -1.47033988
|151> H 8.65573823 0.96045339 -2.29609191
|152> H -10.61843563 1.45321535 0.87939420
|153> H 4.53654597 -3.13652652 3.88248486
|154> *
|155>
|156>                          ****END OF INPUT****
 Total Charge           Charge          ....    0
 Multiplicity           Mult            ....    1
 Number of Electrons    NEL             ....  268
Dispersion correction           -0.029651510
FINAL SINGLE POINT ENERGY     -2463.037680043163

CARTESIAN COORDINATES (ANGSTROEM)
---------------------------------
  C     -8.783680    3.235707   -1.394243
  C     -7.580001    2.579130   -1.318365
  C     -7.419068    1.464513   -0.433554
  C     -8.536197    1.051871    0.380874
  C     -9.774130    1.764666    0.269465
  C     -9.888481    2.824319   -0.596056
  N     -6.227116    0.819971   -0.374531
  C     -6.120744   -0.231366    0.470941
  C     -7.234003   -0.621868    1.310509
  N     -8.427223    0.019747    1.252312
  C     -7.071068   -1.707043    2.229943
  C     -5.866586   -2.361779    2.313931
  C     -4.774986   -1.990104    1.488370
  C     -4.870906   -0.959407    0.566309
  H     -3.847206   -2.550457    1.570680
  H     -5.739751   -3.185054    3.012407
  H     -7.910210   -1.999715    2.855204
  H    -10.829027    3.363168   -0.678881
  H     -6.737312    2.892868   -1.929611
  H     -8.904353    4.079740   -2.068621
  S      1.042229   -0.080094   -2.096509
  C      0.018870   -0.590849   -0.760853
  C      0.787477   -1.045736    0.291217
  C      2.202948   -0.985164    0.049527
  C      2.491727   -0.484555   -1.210199
  C     -1.423137   -0.504985   -0.843159
  C     -2.354840   -0.861892    0.110817
  C     -3.714474   -0.629992   -0.290719
  C     -3.796512   -0.103127   -1.567897
  S     -2.221630    0.114394   -2.283245
  H     -2.076239   -1.252897    1.083678
  H      0.359480   -1.403370    1.222541
  H     -4.700169    0.133439   -2.113704
  H      3.465501   -0.377353   -1.667353
  C      5.143268   -1.738541    2.298200
  C      4.296308   -2.549688    3.005444
  S      2.694460   -2.539180    2.317972
  C      3.186758   -1.424568    1.039350
  C      4.526088   -1.089568    1.179699
  C      5.296203   -0.136096    0.301184
  C      6.047879   -0.863757   -0.828379
  C      6.756326    0.083922   -1.811461
  C      8.227476    0.366602   -1.481366
  C      8.480114    1.090959   -0.154538
  C      7.853286    2.476890   -0.087114
  H      6.186232   -1.592153    2.559043
  H      6.769409    2.422324   -0.158798
  H      8.209730    3.104245   -0.901187
  H      8.102403    2.967101    0.851257
  H      6.012993    0.412833    0.918830
  H      4.622187    0.610863   -0.131225
  H      5.330682   -1.480401   -1.379955
  H      6.770101   -1.558944   -0.390286
  H      6.203036    1.025591   -1.880390
  H      6.721962   -0.360119   -2.811918
  H      8.113103    0.479734    0.675540
  H      9.562181    1.180264   -0.011477
  H      8.775085   -0.582078   -1.470340
  H      8.655738    0.960453   -2.296092
  H    -10.618436    1.453215    0.879394
  H      4.536546   -3.136527    3.882485

 Multiplicity           Mult            ....    1
 Number of Electrons    NEL             ....  268
 Basis Dimension        Dim             .... 1259

ORBITAL ENERGIES
----------------

  NO   OCC          E(Eh)            E(eV)
   0   2.0000     -88.983604     -2421.3670
   1   2.0000     -88.981744     -2421.3163
   2   2.0000     -88.976461     -2421.1726
   3   2.0000     -14.445830      -393.0910
   4   2.0000     -14.445560      -393.0837
   5   2.0000     -10.341097      -281.3956
   6   2.0000     -10.338431      -281.3230
   7   2.0000     -10.338212      -281.3170
   8   2.0000     -10.337429      -281.2957
   9   2.0000     -10.331097      -281.1235
  10   2.0000     -10.328329      -281.0481
  11   2.0000     -10.319121      -280.7976
  12   2.0000     -10.314741      -280.6784
  13   2.0000     -10.314563      -280.6735
  14   2.0000     -10.311456      -280.5890
  15   2.0000     -10.310346      -280.5588
  16   2.0000     -10.309219      -280.5281
  17   2.0000     -10.302377      -280.3419
  18   2.0000     -10.301868      -280.3281
  19   2.0000     -10.301392      -280.3151
  20   2.0000     -10.301117      -280.3077
  21   2.0000     -10.300288      -280.2851
  22   2.0000     -10.298587      -280.2388
  23   2.0000     -10.298040      -280.2239
  24   2.0000     -10.295449      -280.1534
  25   2.0000     -10.292987      -280.0864
  26   2.0000     -10.291642      -280.0498
  27   2.0000     -10.291370      -280.0424
  28   2.0000     -10.284406      -279.8529
  29   2.0000     -10.282307      -279.7958
  30   2.0000     -10.276730      -279.6440
  31   2.0000     -10.272501      -279.5290
  32   2.0000     -10.271802      -279.5099
  33   2.0000     -10.270953      -279.4868
  34   2.0000     -10.261706      -279.2352
  35   2.0000      -8.079975      -219.8673
  36   2.0000      -8.078207      -219.8192
  37   2.0000      -8.072950      -219.6761
  38   2.0000      -6.033311      -164.1747
  39   2.0000      -6.031495      -164.1253
  40   2.0000      -6.029100      -164.0601
  41   2.0000      -6.027264      -164.0102
  42   2.0000      -6.027022      -164.0036
  43   2.0000      -6.026180      -163.9807
  44   2.0000      -6.025371      -163.9587
  45   2.0000      -6.022097      -163.8696
  46   2.0000      -6.020077      -163.8146
  47   2.0000      -1.100799       -29.9543
  48   2.0000      -1.030889       -28.0519
  49   2.0000      -1.017306       -27.6823
  50   2.0000      -1.003581       -27.3088
  51   2.0000      -0.992422       -27.0052
  52   2.0000      -0.983418       -26.7602
  53   2.0000      -0.961173       -26.1548
  54   2.0000      -0.934961       -25.4416
  55   2.0000      -0.908499       -24.7215
  56   2.0000      -0.899579       -24.4788
  57   2.0000      -0.888560       -24.1790
  58   2.0000      -0.880688       -23.9647
  59   2.0000      -0.871621       -23.7180
  60   2.0000      -0.869176       -23.6515
  61   2.0000      -0.857282       -23.3278
  62   2.0000      -0.837317       -22.7846
  63   2.0000      -0.828405       -22.5420
  64   2.0000      -0.815518       -22.1914
  65   2.0000      -0.804247       -21.8847
  66   2.0000      -0.798639       -21.7321
  67   2.0000      -0.762661       -20.7531
  68   2.0000      -0.761629       -20.7250
  69   2.0000      -0.732122       -19.9220
  70   2.0000      -0.721258       -19.6264
  71   2.0000      -0.717226       -19.5167
  72   2.0000      -0.712672       -19.3928
  73   2.0000      -0.694808       -18.9067
  74   2.0000      -0.677391       -18.4327
  75   2.0000      -0.667606       -18.1665
  76   2.0000      -0.666702       -18.1419
  77   2.0000      -0.665672       -18.1139
  78   2.0000      -0.655249       -17.8302
  79   2.0000      -0.639436       -17.3999
  80   2.0000      -0.632804       -17.2195
  81   2.0000      -0.605363       -16.4728
  82   2.0000      -0.602235       -16.3876
  83   2.0000      -0.598147       -16.2764
  84   2.0000      -0.588819       -16.0226
  85   2.0000      -0.584513       -15.9054
  86   2.0000      -0.580824       -15.8050
  87   2.0000      -0.571244       -15.5443
  88   2.0000      -0.562821       -15.3152
  89   2.0000      -0.554208       -15.0808
  90   2.0000      -0.546682       -14.8760
  91   2.0000      -0.541687       -14.7401
  92   2.0000      -0.537275       -14.6200
  93   2.0000      -0.536195       -14.5906
  94   2.0000      -0.524481       -14.2718
  95   2.0000      -0.518414       -14.1067
  96   2.0000      -0.515609       -14.0304
  97   2.0000      -0.511265       -13.9122
  98   2.0000      -0.508657       -13.8412
  99   2.0000      -0.503953       -13.7132
 100   2.0000      -0.500320       -13.6144
 101   2.0000      -0.495742       -13.4898
 102   2.0000      -0.493238       -13.4217
 103   2.0000      -0.487905       -13.2766
 104   2.0000      -0.485224       -13.2036
 105   2.0000      -0.482474       -13.1288
 106   2.0000      -0.476941       -12.9782
 107   2.0000      -0.471453       -12.8289
 108   2.0000      -0.468620       -12.7518
 109   2.0000      -0.465058       -12.6549
 110   2.0000      -0.459298       -12.4981
 111   2.0000      -0.455690       -12.4000
 112   2.0000      -0.450011       -12.2454
 113   2.0000      -0.449271       -12.2253
 114   2.0000      -0.446549       -12.1512
 115   2.0000      -0.442610       -12.0440
 116   2.0000      -0.437227       -11.8976
 117   2.0000      -0.430626       -11.7179
 118   2.0000      -0.429142       -11.6775
 119   2.0000      -0.425706       -11.5840
 120   2.0000      -0.414184       -11.2705
 121   2.0000      -0.413840       -11.2612
 122   2.0000      -0.406749       -11.0682
 123   2.0000      -0.403008       -10.9664
 124   2.0000      -0.386855       -10.5269
 125   2.0000      -0.369357       -10.0507
 126   2.0000      -0.361876        -9.8471
 127   2.0000      -0.348991        -9.4965
 128   2.0000      -0.339556        -9.2398
 129   2.0000      -0.337377        -9.1805
 130   2.0000      -0.332081        -9.0364
 131   2.0000      -0.308183        -8.3861
 132   2.0000      -0.297967        -8.1081
 133   2.0000      -0.276369        -7.5204
 134   0.0000      -0.042076        -1.1450
 135   0.0000       0.008136         0.2214
 136   0.0000       0.030260         0.8234
 137   0.0000       0.034378         0.9355
 138   0.0000       0.044130         1.2008

MULLIKEN ATOMIC CHARGES
-----------------------
   0 C :   -0.060376
   1 C :   -0.288044
   2 C :    0.212172
   3 C :    0.187931
   4 C :   -0.250573
   5 C :   -0.078935
   6 N :   -0.318126
   7 C :    0.176177
   8 C :    0.190802
   9 N :   -0.246953
  10 C :   -0.259195
  11 C :   -0.080827
  12 C :   -0.166273
  13 C :    0.009169
  14 H :    0.135070
  15 H :    0.129389
  16 H :    0.130009
  17 H :    0.131293
  18 H :    0.136372
  19 H :    0.133823
  20 S :    0.056800
  21 C :    0.045565
  22 C :   -0.265640
  23 C :    0.227845
  24 C :   -0.296712
  25 C :    0.053057
  26 C :   -0.293221
  27 C :    0.121481
  28 C :   -0.205640
  29 S :    0.054817
  30 H :    0.148256
  31 H :    0.151664
  32 H :    0.171796
  33 H :    0.178969
  34 C :   -0.228082
  35 C :   -0.185193
  36 S :    0.034851
  37 C :   -0.051465
  38 C :    0.108526
  39 C :   -0.450224
  40 C :   -0.243712
  41 C :   -0.178785
  42 C :   -0.206171
  43 C :   -0.171947
  44 C :   -0.376431
  45 H :    0.136315
  46 H :    0.117990
  47 H :    0.114173
  48 H :    0.120922
  49 H :    0.140562
  50 H :    0.160345
  51 H :    0.140363
  52 H :    0.120278
  53 H :    0.114400
  54 H :    0.109987
  55 H :    0.092808
  56 H :    0.104281
  57 H :    0.106679
  58 H :    0.105546
  59 H :    0.132797
  60 H :    0.159247
Sum of atomic charges:   -0.0000000

LOEWDIN ATOMIC CHARGES
----------------------
   0 C :   -0.131797
   1 C :   -0.099500
   2 C :   -0.166808
   3 C :   -0.167330
   4 C :   -0.097303
   5 C :   -0.132020
   6 N :    0.206669
   7 C :   -0.122328
   8 C :   -0.164419
   9 N :    0.200977
  10 C :   -0.101029
  11 C :   -0.131487
  12 C :   -0.092495
  13 C :   -0.065218
  14 H :    0.152191
  15 H :    0.149170
  16 H :    0.152895
  17 H :    0.148199
  18 H :    0.152899
  19 H :    0.148221
  20 S :    0.707110
  21 C :   -0.354495
  22 C :   -0.132085
  23 C :   -0.203049
  24 C :   -0.352984
  25 C :   -0.357646
  26 C :   -0.122373
  27 C :   -0.163391
  28 C :   -0.332337
  29 S :    0.709432
  30 H :    0.147110
  31 H :    0.144806
  32 H :    0.136703
  33 H :    0.133088
  34 C :   -0.180397
  35 C :   -0.384478
  36 S :    0.697204
  37 C :   -0.286730
  38 C :   -0.160635
  39 C :   -0.225903
  40 C :   -0.256339
  41 C :   -0.265798
  42 C :   -0.271731
  43 C :   -0.298568
  44 C :   -0.312814
  45 H :    0.144592
  46 H :    0.114298
  47 H :    0.118686
  48 H :    0.118884
  49 H :    0.144162
  50 H :    0.144536
  51 H :    0.136141
  52 H :    0.139276
  53 H :    0.134745
  54 H :    0.136646
  55 H :    0.128391
  56 H :    0.133616
  57 H :    0.135351
  58 H :    0.135460
  59 H :    0.153297
  60 H :    0.128733

  Mayer bond orders larger than 0.1
B(  0-C ,  1-C ) :   1.6179 B(  0-C ,  5-C ) :   1.1895 B(  0-C , 19-H ) :   0.9762
B(  1-C ,  2-C ) :   1.1790 B(  1-C , 18-H ) :   0.9735 B(  2-C ,  3-C ) :   1.1648
B(  2-C ,  6-N ) :   1.4037 B(  3-C ,  4-C ) :   1.1968 B(  3-C ,  9-N ) :   1.4082
B(  4-C ,  5-C ) :   1.6140 B(  4-C , 59-H ) :   0.9762 B(  5-C , 17-H ) :   0.9845
B(  6-N ,  7-C ) :   1.3601 B(  7-C ,  8-C ) :   1.1983 B(  7-C , 13-C ) :   1.1284
B(  8-C ,  9-N ) :   1.4235 B(  8-C , 10-C ) :   1.1937 B( 10-C , 11-C ) :   1.5944
B( 10-C , 16-H ) :   0.9817 B( 11-C , 12-C ) :   1.2334 B( 11-C , 15-H ) :   0.9868
B( 12-C , 13-C ) :   1.5642 B( 12-C , 14-H ) :   0.9573 B( 13-C , 27-C ) :   0.8963
B( 20-S , 21-C ) :   1.2934 B( 20-S , 24-C ) :   1.2945 B( 21-C , 22-C ) :   1.6583
B( 21-C , 25-C ) :   0.9067 B( 22-C , 23-C ) :   1.2374 B( 22-C , 31-H ) :   0.8962
B( 23-C , 24-C ) :   1.5735 B( 23-C , 36-S ) :  -0.1039 B( 23-C , 37-C ) :   0.8213
B( 24-C , 33-H ) :   0.9398 B( 25-C , 26-C ) :   1.6796 B( 25-C , 29-S ) :   1.2769
B( 26-C , 27-C ) :   1.2621 B( 26-C , 30-H ) :   0.8867 B( 27-C , 28-C ) :   1.6357
B( 28-C , 29-S ) :   1.2979 B( 28-C , 32-H ) :   0.9197 B( 34-C , 35-C ) :   1.7192
B( 34-C , 36-S ) :   0.1159 B( 34-C , 38-C ) :   1.2096 B( 34-C , 45-H ) :   0.9608
B( 35-C , 36-S ) :   1.2557 B( 35-C , 60-H ) :   0.9434 B( 36-S , 37-C ) :   1.3004
B( 37-C , 38-C ) :   1.5388 B( 38-C , 39-C ) :   0.8673 B( 39-C , 40-C ) :   0.9302
B( 39-C , 49-H ) :   0.9789 B( 39-C , 50-H ) :   0.9822 B( 40-C , 41-C ) :   0.9052
B( 40-C , 51-H ) :   0.9966 B( 40-C , 52-H ) :   0.9698 B( 41-C , 42-C ) :   0.9695
B( 41-C , 53-H ) :   0.9899 B( 41-C , 54-H ) :   0.9756 B( 42-C , 43-C ) :   0.9704
B( 42-C , 57-H ) :   0.9804 B( 42-C , 58-H ) :   0.9837 B( 43-C , 44-C ) :   0.9633
B( 43-C , 55-H ) :   0.9794 B( 43-C , 56-H ) :   0.9740 B( 44-C , 46-H ) :   0.9803
B( 44-C , 47-H ) :   0.9759 B( 44-C , 48-H ) :   0.9799

Dispersion correction           -0.029651510
FINAL SINGLE POINT ENERGY     -2463.037679976101

DIPOLE MOMENT
-------------
                                X             Y             Z
Electronic contribution:    -68.37378     -10.41180       0.42353
Nuclear contribution   :     68.58710      10.58571      -0.30021
                        -----------------------------------------
Total Dipole Moment    :      0.21332       0.17391       0.12332
                        -----------------------------------------
Magnitude (a.u.)       :      0.30159
Magnitude (Debye)      :      0.76659

                             ****ORCA TERMINATED NORMALLY****
TOTAL RUN TIME: 0 days 0 hours 11 minutes 27 seconds 402 msec
