                         Program Version 4.0.0 -  RELEASE  -
|  1> #
|  2> !wB97X-D3 def2-TZVP def2/J RIJCOSX Grid5 FinalGrid6 TightSCF
|  3> %pal
|  4>  nprocs 24
|  5> end
|  6> %tddft
|  7>   Mode sTDDFT
|  8>   nroots 2
|  9>   Ethresh 10.0
| 10>   maxcore 5000
| 11>   triplets true
| 12> end
| 13> * xyz 0 1
| 14> C -7.82932415 0.83718857 -2.03829915
| 15> C -6.69354891 0.37325550 -1.37834401
| 16> C -6.75328183 0.14647850 0.00899279
| 17> C -7.96627278 0.43736232 0.69455317
| 18> C -9.11419868 0.89625704 0.03064684
| 19> C -9.02826564 1.08510189 -1.34693378
| 20> C -5.80030792 -0.28350529 1.01935299
| 21> C -6.47833665 -0.19126768 2.26817200
| 22> N -7.78285279 0.21588827 2.04867263
| 23> C -5.85109202 -0.45731035 3.49524540
| 24> C -4.50199356 -0.80608937 3.45918455
| 25> C -3.81392666 -0.91770681 2.24304327
| 26> C -4.44060317 -0.69152686 1.00371714
| 27> H -2.76922382 -1.21877052 2.25350657
| 28> H -8.47469472 0.37807396 2.77001942
| 29> H -3.97447400 -1.00664991 4.38775299
| 30> H -5.77517209 0.20959369 -1.93449455
| 31> H -10.03223419 1.10620560 0.57309000
| 32> H -9.89681732 1.44128347 -1.89448341
| 33> H -7.78963376 1.01415377 -3.10958874
| 34> N 0.36334809 -0.70536523 -2.34717899
| 35> C -0.81116465 -1.24520817 -2.85722869
| 36> C -0.71757150 -1.75300894 -4.14244733
| 37> S 0.90476113 -1.55360009 -4.75169190
| 38> C 1.36124128 -0.78581241 -3.21125135
| 39> C -2.00813361 -1.23673625 -2.03392651
| 40> S -1.98188261 -0.54554924 -0.40271045
| 41> C -3.69298851 -0.92928617 -0.23743529
| 42> C -4.12762687 -1.55491108 -1.39289261
| 43> N -3.19103402 -1.72037133 -2.38755039
| 44> H -1.51145566 -2.21289600 -4.71560206
| 45> H -5.13321049 -1.94462584 -1.53504500
| 46> C 3.18457331 0.30256617 -1.82251349
| 47> C 2.70459792 -0.30930862 -2.96530308
| 48> S 3.97324773 -0.46143550 -4.17110641
| 49> C 5.13140247 0.30455334 -3.11020090
| 50> C 4.56795479 0.65489435 -1.90321821
| 51> C 5.32315461 1.32459468 -0.78439680
| 52> C 5.40501767 0.44182953 0.46991455
| 53> C 6.09060649 1.13020420 1.65403100
| 54> C 7.53593849 1.57244823 1.39288375
| 55> C 8.47167180 0.45631244 0.91384716
| 56> C 8.59171014 -0.70142647 1.89519710
| 57> H 2.56162268 0.49363878 -0.95566975
| 58> H 7.63754254 -1.20738843 2.02250747
| 59> H 9.31393317 -1.43336056 1.54070552
| 60> H 8.91715633 -0.35146321 2.87244635
| 61> H 6.33135385 1.57642433 -1.12585095
| 62> H 4.83376498 2.27122889 -0.52367745
| 63> H 4.39237669 0.15084412 0.76798166
| 64> H 5.93059747 -0.48568216 0.22458141
| 65> H 5.50641302 2.00961908 1.94629315
| 66> H 6.07026929 0.44967116 2.51112302
| 67> H 8.12734062 0.07912886 -0.05425569
| 68> H 9.46374080 0.88586507 0.73964215
| 69> H 7.54139891 2.37709106 0.65015658
| 70> H 7.93632517 2.00497838 2.31575851
| 71> H -6.39113625 -0.37845738 4.43445028
| 72> H 6.15939740 0.46218461 -3.41117247
| 73> *
| 74> $new_job
| 75> #
| 76> !wB97X-D3 def2-TZVP def2/J RIJCOSX Grid5 FinalGrid6 TightSCF
| 77> %pal
| 78>  nprocs 24
| 79> end
| 80> %elprop
| 81>    dipole     true
| 82>    quadrupole true
| 83> end
| 84> %tddft
| 85>   Mode sTDDFT
| 86>   nroots 2
| 87>   Ethresh 10.0
| 88>   maxcore 5000
| 89> end
| 90> * xyz 0 1
| 91> C -7.82932415 0.83718857 -2.03829915
| 92> C -6.69354891 0.37325550 -1.37834401
| 93> C -6.75328183 0.14647850 0.00899279
| 94> C -7.96627278 0.43736232 0.69455317
| 95> C -9.11419868 0.89625704 0.03064684
| 96> C -9.02826564 1.08510189 -1.34693378
| 97> C -5.80030792 -0.28350529 1.01935299
| 98> C -6.47833665 -0.19126768 2.26817200
| 99> N -7.78285279 0.21588827 2.04867263
|100> C -5.85109202 -0.45731035 3.49524540
|101> C -4.50199356 -0.80608937 3.45918455
|102> C -3.81392666 -0.91770681 2.24304327
|103> C -4.44060317 -0.69152686 1.00371714
|104> H -2.76922382 -1.21877052 2.25350657
|105> H -8.47469472 0.37807396 2.77001942
|106> H -3.97447400 -1.00664991 4.38775299
|107> H -5.77517209 0.20959369 -1.93449455
|108> H -10.03223419 1.10620560 0.57309000
|109> H -9.89681732 1.44128347 -1.89448341
|110> H -7.78963376 1.01415377 -3.10958874
|111> N 0.36334809 -0.70536523 -2.34717899
|112> C -0.81116465 -1.24520817 -2.85722869
|113> C -0.71757150 -1.75300894 -4.14244733
|114> S 0.90476113 -1.55360009 -4.75169190
|115> C 1.36124128 -0.78581241 -3.21125135
|116> C -2.00813361 -1.23673625 -2.03392651
|117> S -1.98188261 -0.54554924 -0.40271045
|118> C -3.69298851 -0.92928617 -0.23743529
|119> C -4.12762687 -1.55491108 -1.39289261
|120> N -3.19103402 -1.72037133 -2.38755039
|121> H -1.51145566 -2.21289600 -4.71560206
|122> H -5.13321049 -1.94462584 -1.53504500
|123> C 3.18457331 0.30256617 -1.82251349
|124> C 2.70459792 -0.30930862 -2.96530308
|125> S 3.97324773 -0.46143550 -4.17110641
|126> C 5.13140247 0.30455334 -3.11020090
|127> C 4.56795479 0.65489435 -1.90321821
|128> C 5.32315461 1.32459468 -0.78439680
|129> C 5.40501767 0.44182953 0.46991455
|130> C 6.09060649 1.13020420 1.65403100
|131> C 7.53593849 1.57244823 1.39288375
|132> C 8.47167180 0.45631244 0.91384716
|133> C 8.59171014 -0.70142647 1.89519710
|134> H 2.56162268 0.49363878 -0.95566975
|135> H 7.63754254 -1.20738843 2.02250747
|136> H 9.31393317 -1.43336056 1.54070552
|137> H 8.91715633 -0.35146321 2.87244635
|138> H 6.33135385 1.57642433 -1.12585095
|139> H 4.83376498 2.27122889 -0.52367745
|140> H 4.39237669 0.15084412 0.76798166
|141> H 5.93059747 -0.48568216 0.22458141
|142> H 5.50641302 2.00961908 1.94629315
|143> H 6.07026929 0.44967116 2.51112302
|144> H 8.12734062 0.07912886 -0.05425569
|145> H 9.46374080 0.88586507 0.73964215
|146> H 7.54139891 2.37709106 0.65015658
|147> H 7.93632517 2.00497838 2.31575851
|148> H -6.39113625 -0.37845738 4.43445028
|149> H 6.15939740 0.46218461 -3.41117247
|150> *
|151>
|152>                          ****END OF INPUT****
 Total Charge           Charge          ....    0
 Multiplicity           Mult            ....    1
 Number of Electrons    NEL             ....  262
Dispersion correction           -0.027163903
FINAL SINGLE POINT ENERGY     -2441.013463562307

CARTESIAN COORDINATES (ANGSTROEM)
---------------------------------
  C     -7.829324    0.837189   -2.038299
  C     -6.693549    0.373256   -1.378344
  C     -6.753282    0.146479    0.008993
  C     -7.966273    0.437362    0.694553
  C     -9.114199    0.896257    0.030647
  C     -9.028266    1.085102   -1.346934
  C     -5.800308   -0.283505    1.019353
  C     -6.478337   -0.191268    2.268172
  N     -7.782853    0.215888    2.048673
  C     -5.851092   -0.457310    3.495245
  C     -4.501994   -0.806089    3.459185
  C     -3.813927   -0.917707    2.243043
  C     -4.440603   -0.691527    1.003717
  H     -2.769224   -1.218771    2.253507
  H     -8.474695    0.378074    2.770019
  H     -3.974474   -1.006650    4.387753
  H     -5.775172    0.209594   -1.934495
  H    -10.032234    1.106206    0.573090
  H     -9.896817    1.441283   -1.894483
  H     -7.789634    1.014154   -3.109589
  N      0.363348   -0.705365   -2.347179
  C     -0.811165   -1.245208   -2.857229
  C     -0.717572   -1.753009   -4.142447
  S      0.904761   -1.553600   -4.751692
  C      1.361241   -0.785812   -3.211251
  C     -2.008134   -1.236736   -2.033927
  S     -1.981883   -0.545549   -0.402710
  C     -3.692989   -0.929286   -0.237435
  C     -4.127627   -1.554911   -1.392893
  N     -3.191034   -1.720371   -2.387550
  H     -1.511456   -2.212896   -4.715602
  H     -5.133210   -1.944626   -1.535045
  C      3.184573    0.302566   -1.822513
  C      2.704598   -0.309309   -2.965303
  S      3.973248   -0.461435   -4.171106
  C      5.131402    0.304553   -3.110201
  C      4.567955    0.654894   -1.903218
  C      5.323155    1.324595   -0.784397
  C      5.405018    0.441830    0.469915
  C      6.090606    1.130204    1.654031
  C      7.535938    1.572448    1.392884
  C      8.471672    0.456312    0.913847
  C      8.591710   -0.701426    1.895197
  H      2.561623    0.493639   -0.955670
  H      7.637543   -1.207388    2.022507
  H      9.313933   -1.433361    1.540706
  H      8.917156   -0.351463    2.872446
  H      6.331354    1.576424   -1.125851
  H      4.833765    2.271229   -0.523677
  H      4.392377    0.150844    0.767982
  H      5.930597   -0.485682    0.224581
  H      5.506413    2.009619    1.946293
  H      6.070269    0.449671    2.511123
  H      8.127341    0.079129   -0.054256
  H      9.463741    0.885865    0.739642
  H      7.541399    2.377091    0.650157
  H      7.936325    2.004978    2.315759
  H     -6.391136   -0.378457    4.434450
  H      6.159397    0.462185   -3.411172

 Multiplicity           Mult            ....    1
 Number of Electrons    NEL             ....  262
 Basis Dimension        Dim             .... 1222

ORBITAL ENERGIES
----------------

  NO   OCC          E(Eh)            E(eV)
   0   2.0000     -88.996832     -2421.7269
   1   2.0000     -88.987659     -2421.4773
   2   2.0000     -88.984306     -2421.3861
   3   2.0000     -14.467907      -393.6918
   4   2.0000     -14.437248      -392.8575
   5   2.0000     -14.427211      -392.5844
   6   2.0000     -10.372137      -282.2402
   7   2.0000     -10.356134      -281.8047
   8   2.0000     -10.336073      -281.2588
   9   2.0000     -10.332325      -281.1569
  10   2.0000     -10.328681      -281.0577
  11   2.0000     -10.325487      -280.9708
  12   2.0000     -10.324781      -280.9516
  13   2.0000     -10.322463      -280.8885
  14   2.0000     -10.317143      -280.7437
  15   2.0000     -10.310463      -280.5619
  16   2.0000     -10.310381      -280.5597
  17   2.0000     -10.300797      -280.2989
  18   2.0000     -10.295370      -280.1513
  19   2.0000     -10.294793      -280.1356
  20   2.0000     -10.289537      -279.9925
  21   2.0000     -10.289328      -279.9869
  22   2.0000     -10.288296      -279.9588
  23   2.0000     -10.286678      -279.9147
  24   2.0000     -10.286108      -279.8992
  25   2.0000     -10.284284      -279.8496
  26   2.0000     -10.283212      -279.8204
  27   2.0000     -10.281282      -279.7679
  28   2.0000     -10.276425      -279.6358
  29   2.0000     -10.274701      -279.5888
  30   2.0000     -10.272193      -279.5206
  31   2.0000     -10.271789      -279.5096
  32   2.0000     -10.270933      -279.4863
  33   2.0000     -10.261872      -279.2397
  34   2.0000      -8.093185      -220.2267
  35   2.0000      -8.084072      -219.9788
  36   2.0000      -8.080451      -219.8802
  37   2.0000      -6.046365      -164.5300
  38   2.0000      -6.042223      -164.4173
  39   2.0000      -6.040425      -164.3683
  40   2.0000      -6.037400      -164.2860
  41   2.0000      -6.033511      -164.1802
  42   2.0000      -6.033202      -164.1718
  43   2.0000      -6.031142      -164.1157
  44   2.0000      -6.029520      -164.0716
  45   2.0000      -6.027768      -164.0239
  46   2.0000      -1.104496       -30.0549
  47   2.0000      -1.091252       -29.6945
  48   2.0000      -1.069945       -29.1147
  49   2.0000      -1.007362       -27.4117
  50   2.0000      -0.976738       -26.5784
  51   2.0000      -0.965116       -26.2621
  52   2.0000      -0.938887       -25.5484
  53   2.0000      -0.921768       -25.0826
  54   2.0000      -0.918577       -24.9958
  55   2.0000      -0.912719       -24.8363
  56   2.0000      -0.899439       -24.4750
  57   2.0000      -0.896652       -24.3992
  58   2.0000      -0.870241       -23.6805
  59   2.0000      -0.862130       -23.4598
  60   2.0000      -0.856393       -23.3036
  61   2.0000      -0.844041       -22.9675
  62   2.0000      -0.838614       -22.8198
  63   2.0000      -0.823530       -22.4094
  64   2.0000      -0.807729       -21.9794
  65   2.0000      -0.772136       -21.0109
  66   2.0000      -0.762545       -20.7499
  67   2.0000      -0.735333       -20.0094
  68   2.0000      -0.729424       -19.8486
  69   2.0000      -0.718963       -19.5640
  70   2.0000      -0.715540       -19.4708
  71   2.0000      -0.712083       -19.3768
  72   2.0000      -0.705909       -19.2088
  73   2.0000      -0.671901       -18.2834
  74   2.0000      -0.662228       -18.0201
  75   2.0000      -0.655758       -17.8441
  76   2.0000      -0.646288       -17.5864
  77   2.0000      -0.638608       -17.3774
  78   2.0000      -0.635363       -17.2891
  79   2.0000      -0.620373       -16.8812
  80   2.0000      -0.611607       -16.6427
  81   2.0000      -0.603039       -16.4095
  82   2.0000      -0.585725       -15.9384
  83   2.0000      -0.584853       -15.9146
  84   2.0000      -0.569701       -15.5023
  85   2.0000      -0.564773       -15.3683
  86   2.0000      -0.557486       -15.1700
  87   2.0000      -0.550559       -14.9815
  88   2.0000      -0.545556       -14.8453
  89   2.0000      -0.543895       -14.8001
  90   2.0000      -0.537845       -14.6355
  91   2.0000      -0.532939       -14.5020
  92   2.0000      -0.529194       -14.4001
  93   2.0000      -0.527368       -14.3504
  94   2.0000      -0.524197       -14.2641
  95   2.0000      -0.520279       -14.1575
  96   2.0000      -0.517556       -14.0834
  97   2.0000      -0.512243       -13.9388
  98   2.0000      -0.508088       -13.8258
  99   2.0000      -0.504856       -13.7378
 100   2.0000      -0.499527       -13.5928
 101   2.0000      -0.488858       -13.3025
 102   2.0000      -0.478515       -13.0211
 103   2.0000      -0.474801       -12.9200
 104   2.0000      -0.468998       -12.7621
 105   2.0000      -0.468407       -12.7460
 106   2.0000      -0.466965       -12.7068
 107   2.0000      -0.462297       -12.5797
 108   2.0000      -0.454673       -12.3723
 109   2.0000      -0.450951       -12.2710
 110   2.0000      -0.448930       -12.2160
 111   2.0000      -0.442460       -12.0400
 112   2.0000      -0.441040       -12.0013
 113   2.0000      -0.437346       -11.9008
 114   2.0000      -0.433790       -11.8040
 115   2.0000      -0.432093       -11.7578
 116   2.0000      -0.413883       -11.2623
 117   2.0000      -0.407527       -11.0894
 118   2.0000      -0.405707       -11.0399
 119   2.0000      -0.394873       -10.7450
 120   2.0000      -0.388021       -10.5586
 121   2.0000      -0.381810       -10.3896
 122   2.0000      -0.378531       -10.3004
 123   2.0000      -0.370939       -10.0938
 124   2.0000      -0.366889        -9.9836
 125   2.0000      -0.349444        -9.5089
 126   2.0000      -0.340250        -9.2587
 127   2.0000      -0.322336        -8.7712
 128   2.0000      -0.300863        -8.1869
 129   2.0000      -0.294102        -8.0029
 130   2.0000      -0.276650        -7.5280
 131   0.0000      -0.005813        -0.1582
 132   0.0000       0.002365         0.0644
 133   0.0000       0.033495         0.9114
 134   0.0000       0.057052         1.5525
 135   0.0000       0.061945         1.6856

MULLIKEN ATOMIC CHARGES
-----------------------
   0 C :   -0.150756
   1 C :   -0.224321
   2 C :   -0.048360
   3 C :    0.170713
   4 C :   -0.227252
   5 C :   -0.092712
   6 C :   -0.013826
   7 C :    0.178354
   8 N :   -0.300973
   9 C :   -0.240990
  10 C :   -0.081957
  11 C :   -0.278799
  12 C :    0.204496
  13 H :    0.130229
  14 H :    0.235883
  15 H :    0.123536
  16 H :    0.208359
  17 H :    0.114814
  18 H :    0.122415
  19 H :    0.119853
  20 N :   -0.317452
  21 C :    0.094229
  22 C :   -0.196991
  23 S :    0.066934
  24 C :    0.273826
  25 C :    0.121268
  26 S :    0.061001
  27 C :    0.040536
  28 C :   -0.217555
  29 N :   -0.274011
  30 H :    0.183464
  31 H :    0.188990
  32 C :   -0.330036
  33 C :   -0.036588
  34 S :    0.051307
  35 C :   -0.219724
  36 C :    0.133092
  37 C :   -0.291576
  38 C :   -0.236489
  39 C :   -0.195058
  40 C :   -0.229315
  41 C :   -0.178386
  42 C :   -0.369562
  43 H :    0.164259
  44 H :    0.114577
  45 H :    0.120471
  46 H :    0.112487
  47 H :    0.120044
  48 H :    0.120932
  49 H :    0.117395
  50 H :    0.124289
  51 H :    0.106727
  52 H :    0.125382
  53 H :    0.098265
  54 H :    0.102802
  55 H :    0.116068
  56 H :    0.111911
  57 H :    0.115215
  58 H :    0.158565
Sum of atomic charges:   -0.0000000

LOEWDIN ATOMIC CHARGES
----------------------
   0 C :   -0.158358
   1 C :   -0.104793
   2 C :   -0.081296
   3 C :   -0.145381
   4 C :   -0.133202
   5 C :   -0.142151
   6 C :   -0.041511
   7 C :   -0.143914
   8 N :    0.200138
   9 C :   -0.130167
  10 C :   -0.141294
  11 C :   -0.125620
  12 C :   -0.109911
  13 H :    0.146077
  14 H :    0.192903
  15 H :    0.146468
  16 H :    0.154521
  17 H :    0.143002
  18 H :    0.144613
  19 H :    0.144069
  20 N :    0.134371
  21 C :   -0.285455
  22 C :   -0.340525
  23 S :    0.696441
  24 C :   -0.413561
  25 C :   -0.392675
  26 S :    0.745758
  27 C :   -0.323338
  28 C :   -0.233103
  29 N :    0.107341
  30 H :    0.140470
  31 H :    0.147786
  32 C :   -0.107513
  33 C :   -0.367726
  34 S :    0.700071
  35 C :   -0.350483
  36 C :   -0.202639
  37 C :   -0.216743
  38 C :   -0.257241
  39 C :   -0.269580
  40 C :   -0.272864
  41 C :   -0.297812
  42 C :   -0.310407
  43 H :    0.155030
  44 H :    0.116250
  45 H :    0.118214
  46 H :    0.118460
  47 H :    0.143048
  48 H :    0.147422
  49 H :    0.138285
  50 H :    0.137486
  51 H :    0.136199
  52 H :    0.136257
  53 H :    0.130481
  54 H :    0.133370
  55 H :    0.133163
  56 H :    0.135865
  57 H :    0.143555
  58 H :    0.132148

  Mayer bond orders larger than 0.1
B(  0-C ,  1-C ) :   1.5327 B(  0-C ,  5-C ) :   1.3593 B(  0-C , 19-H ) :   0.9841
B(  1-C ,  2-C ) :   1.2853 B(  1-C , 16-H ) :   0.9203 B(  2-C ,  3-C ) :   1.3733
B(  2-C ,  6-C ) :   1.0558 B(  3-C ,  4-C ) :   1.3069 B(  3-C ,  8-N ) :   1.1218
B(  4-C ,  5-C ) :   1.4853 B(  4-C , 17-H ) :   0.9765 B(  5-C , 18-H ) :   0.9812
B(  6-C ,  7-C ) :   1.3328 B(  6-C , 12-C ) :   1.2219 B(  7-C ,  8-N ) :   1.1493
B(  7-C ,  9-C ) :   1.2847 B(  8-N , 14-H ) :   0.9128 B(  9-C , 10-C ) :   1.4663
B(  9-C , 57-H ) :   0.9777 B( 10-C , 11-C ) :   1.4032 B( 10-C , 15-H ) :   0.9826
B( 11-C , 12-C ) :   1.4347 B( 11-C , 13-H ) :   0.9605 B( 12-C , 27-C ) :   0.8342
B( 20-N , 21-C ) :   1.2078 B( 20-N , 24-C ) :   1.6666 B( 21-C , 22-C ) :   1.6897
B( 21-C , 25-C ) :   0.9933 B( 22-C , 23-S ) :   1.2688 B( 22-C , 30-H ) :   0.9114
B( 23-S , 24-C ) :   1.2608 B( 24-C , 33-C ) :   0.9472 B( 25-C , 26-S ) :   1.3320
B( 25-C , 29-N ) :   1.6132 B( 26-S , 27-C ) :   1.2668 B( 27-C , 28-C ) :   1.5770
B( 28-C , 29-N ) :   1.3160 B( 28-C , 31-H ) :   0.9728 B( 32-C , 33-C ) :   1.6640
B( 32-C , 36-C ) :   1.2458 B( 32-C , 43-H ) :   0.9271 B( 33-C , 34-S ) :   1.2668
B( 33-C , 36-C ) :  -0.1025 B( 34-S , 35-C ) :   1.2685 B( 35-C , 36-C ) :   1.6616
B( 35-C , 58-H ) :   0.9408 B( 36-C , 37-C ) :   0.9449 B( 37-C , 38-C ) :   0.9543
B( 37-C , 47-H ) :   0.9860 B( 37-C , 48-H ) :   0.9503 B( 38-C , 39-C ) :   0.9504
B( 38-C , 49-H ) :   0.9786 B( 38-C , 50-H ) :   0.9788 B( 39-C , 40-C ) :   0.9378
B( 39-C , 51-H ) :   0.9747 B( 39-C , 52-H ) :   0.9899 B( 40-C , 41-C ) :   0.9638
B( 40-C , 55-H ) :   0.9826 B( 40-C , 56-H ) :   0.9809 B( 41-C , 42-C ) :   0.9722
B( 41-C , 53-H ) :   0.9749 B( 41-C , 54-H ) :   0.9781 B( 42-C , 44-H ) :   0.9758
B( 42-C , 45-H ) :   0.9809 B( 42-C , 46-H ) :   0.9794

Dispersion correction           -0.027163903
FINAL SINGLE POINT ENERGY     -2441.013463507180

DIPOLE MOMENT
-------------
                                X             Y             Z
Electronic contribution:    -54.64470     -11.90596     -29.47327
Nuclear contribution   :     54.76516      12.36355      30.46117
                        -----------------------------------------
Total Dipole Moment    :      0.12046       0.45759       0.98789
                        -----------------------------------------
Magnitude (a.u.)       :      1.09537
Magnitude (Debye)      :      2.78420

                             ****ORCA TERMINATED NORMALLY****
TOTAL RUN TIME: 0 days 0 hours 14 minutes 49 seconds 14 msec
