                         Program Version 4.0.0 -  RELEASE  -
|  1> #
|  2> !wB97X-D3 def2-TZVP def2/J RIJCOSX Grid5 FinalGrid6 TightSCF
|  3> %pal
|  4>  nprocs 24
|  5> end
|  6> %tddft
|  7>   Mode sTDDFT
|  8>   nroots 2
|  9>   Ethresh 10.0
| 10>   maxcore 5000
| 11>   triplets true
| 12> end
| 13> * xyz 0 1
| 14> C 5.46539489 -2.76760947 -0.86070011
| 15> C 4.88355076 -1.57837936 -0.42907954
| 16> C 5.71465163 -0.51070665 -0.03979809
| 17> C 7.12473497 -0.68920360 -0.11404844
| 18> C 7.71367488 -1.88890742 -0.54190812
| 19> C 6.86150648 -2.92582012 -0.91315170
| 20> C 5.49306026 0.84968436 0.42596222
| 21> C 6.78842382 1.42472272 0.58949960
| 22> N 7.74981477 0.48161881 0.27780450
| 23> C 6.99339791 2.75475738 0.98484631
| 24> C 5.86242000 3.53740398 1.20771905
| 25> C 4.57738385 3.00277719 1.05376371
| 26> C 4.35436356 1.66251267 0.68295620
| 27> H 3.71869851 3.64024703 1.25189055
| 28> H 8.75025952 0.63648035 0.29901383
| 29> H 5.97456534 4.57520860 1.50812334
| 30> H 3.80232412 -1.48310287 -0.39182298
| 31> H 8.79375569 -2.00068899 -0.58599709
| 32> H 7.28083322 -3.87012471 -1.25027757
| 33> H 4.82819151 -3.59489962 -1.16114179
| 34> S -1.90532811 -0.51965707 0.43272874
| 35> C -0.86798908 0.91303983 0.28383688
| 36> N -1.54203690 2.02629826 0.02324059
| 37> N -2.88975432 1.84013797 -0.07569827
| 38> C -3.26417145 0.57522324 0.10875462
| 39> C 0.56683274 0.85360524 0.43355337
| 40> N 1.23529414 -0.26166133 0.69873256
| 41> N 2.58638674 -0.07226951 0.79493537
| 42> C 2.97212649 1.17955837 0.60070955
| 43> S 1.60502012 2.27791878 0.28195785
| 44> S -5.03436126 -1.58391458 0.31338930
| 45> C -6.72700604 -1.23828408 0.08773104
| 46> C -6.95125168 0.11367915 -0.17049191
| 47> C -5.76744730 0.88772219 -0.19023295
| 48> C -4.63008981 0.12136093 0.05475842
| 49> C -7.99140940 -1.92846451 0.08494358
| 50> C -9.00390539 -1.01149122 -0.17418546
| 51> C -8.42771456 0.37141384 -0.35966460
| 52> C -10.29891071 -1.60157159 -0.19744954
| 53> C -10.25521461 -2.95700047 0.04375056
| 54> S -8.61883873 -3.53988799 0.30538042
| 55> H -11.22053916 -1.06067072 -0.38195662
| 56> H -5.72119765 1.95557575 -0.37237336
| 57> H -8.82109328 1.08887756 0.37165503
| 58> H -8.65308451 0.78802732 -1.34960057
| 59> H 7.99467539 3.15972126 1.10146781
| 60> H -11.09999737 -3.63305693 0.07947369
| 61> *
| 62> $new_job
| 63> #
| 64> !wB97X-D3 def2-TZVP def2/J RIJCOSX Grid5 FinalGrid6 TightSCF
| 65> %pal
| 66>  nprocs 24
| 67> end
| 68> %elprop
| 69>    dipole     true
| 70>    quadrupole true
| 71> end
| 72> %tddft
| 73>   Mode sTDDFT
| 74>   nroots 2
| 75>   Ethresh 10.0
| 76>   maxcore 5000
| 77> end
| 78> * xyz 0 1
| 79> C 5.46539489 -2.76760947 -0.86070011
| 80> C 4.88355076 -1.57837936 -0.42907954
| 81> C 5.71465163 -0.51070665 -0.03979809
| 82> C 7.12473497 -0.68920360 -0.11404844
| 83> C 7.71367488 -1.88890742 -0.54190812
| 84> C 6.86150648 -2.92582012 -0.91315170
| 85> C 5.49306026 0.84968436 0.42596222
| 86> C 6.78842382 1.42472272 0.58949960
| 87> N 7.74981477 0.48161881 0.27780450
| 88> C 6.99339791 2.75475738 0.98484631
| 89> C 5.86242000 3.53740398 1.20771905
| 90> C 4.57738385 3.00277719 1.05376371
| 91> C 4.35436356 1.66251267 0.68295620
| 92> H 3.71869851 3.64024703 1.25189055
| 93> H 8.75025952 0.63648035 0.29901383
| 94> H 5.97456534 4.57520860 1.50812334
| 95> H 3.80232412 -1.48310287 -0.39182298
| 96> H 8.79375569 -2.00068899 -0.58599709
| 97> H 7.28083322 -3.87012471 -1.25027757
| 98> H 4.82819151 -3.59489962 -1.16114179
| 99> S -1.90532811 -0.51965707 0.43272874
|100> C -0.86798908 0.91303983 0.28383688
|101> N -1.54203690 2.02629826 0.02324059
|102> N -2.88975432 1.84013797 -0.07569827
|103> C -3.26417145 0.57522324 0.10875462
|104> C 0.56683274 0.85360524 0.43355337
|105> N 1.23529414 -0.26166133 0.69873256
|106> N 2.58638674 -0.07226951 0.79493537
|107> C 2.97212649 1.17955837 0.60070955
|108> S 1.60502012 2.27791878 0.28195785
|109> S -5.03436126 -1.58391458 0.31338930
|110> C -6.72700604 -1.23828408 0.08773104
|111> C -6.95125168 0.11367915 -0.17049191
|112> C -5.76744730 0.88772219 -0.19023295
|113> C -4.63008981 0.12136093 0.05475842
|114> C -7.99140940 -1.92846451 0.08494358
|115> C -9.00390539 -1.01149122 -0.17418546
|116> C -8.42771456 0.37141384 -0.35966460
|117> C -10.29891071 -1.60157159 -0.19744954
|118> C -10.25521461 -2.95700047 0.04375056
|119> S -8.61883873 -3.53988799 0.30538042
|120> H -11.22053916 -1.06067072 -0.38195662
|121> H -5.72119765 1.95557575 -0.37237336
|122> H -8.82109328 1.08887756 0.37165503
|123> H -8.65308451 0.78802732 -1.34960057
|124> H 7.99467539 3.15972126 1.10146781
|125> H -11.09999737 -3.63305693 0.07947369
|126> *
|127>
|128>                          ****END OF INPUT****
 Total Charge           Charge          ....    0
 Multiplicity           Mult            ....    1
 Number of Electrons    NEL             ....  262
Dispersion correction           -0.021398402
FINAL SINGLE POINT ENERGY     -2827.081197068976

CARTESIAN COORDINATES (ANGSTROEM)
---------------------------------
  C      5.465395   -2.767609   -0.860700
  C      4.883551   -1.578379   -0.429080
  C      5.714652   -0.510707   -0.039798
  C      7.124735   -0.689204   -0.114048
  C      7.713675   -1.888907   -0.541908
  C      6.861506   -2.925820   -0.913152
  C      5.493060    0.849684    0.425962
  C      6.788424    1.424723    0.589500
  N      7.749815    0.481619    0.277805
  C      6.993398    2.754757    0.984846
  C      5.862420    3.537404    1.207719
  C      4.577384    3.002777    1.053764
  C      4.354364    1.662513    0.682956
  H      3.718699    3.640247    1.251891
  H      8.750260    0.636480    0.299014
  H      5.974565    4.575209    1.508123
  H      3.802324   -1.483103   -0.391823
  H      8.793756   -2.000689   -0.585997
  H      7.280833   -3.870125   -1.250278
  H      4.828192   -3.594900   -1.161142
  S     -1.905328   -0.519657    0.432729
  C     -0.867989    0.913040    0.283837
  N     -1.542037    2.026298    0.023241
  N     -2.889754    1.840138   -0.075698
  C     -3.264171    0.575223    0.108755
  C      0.566833    0.853605    0.433553
  N      1.235294   -0.261661    0.698733
  N      2.586387   -0.072270    0.794935
  C      2.972126    1.179558    0.600710
  S      1.605020    2.277919    0.281958
  S     -5.034361   -1.583915    0.313389
  C     -6.727006   -1.238284    0.087731
  C     -6.951252    0.113679   -0.170492
  C     -5.767447    0.887722   -0.190233
  C     -4.630090    0.121361    0.054758
  C     -7.991409   -1.928465    0.084944
  C     -9.003905   -1.011491   -0.174185
  C     -8.427715    0.371414   -0.359665
  C    -10.298911   -1.601572   -0.197450
  C    -10.255215   -2.957000    0.043751
  S     -8.618839   -3.539888    0.305380
  H    -11.220539   -1.060671   -0.381957
  H     -5.721198    1.955576   -0.372373
  H     -8.821093    1.088878    0.371655
  H     -8.653085    0.788027   -1.349601
  H      7.994675    3.159721    1.101468
  H    -11.099997   -3.633057    0.079474

 Multiplicity           Mult            ....    1
 Number of Electrons    NEL             ....  262
 Basis Dimension        Dim             .... 1156

ORBITAL ENERGIES
----------------

  NO   OCC          E(Eh)            E(eV)
   0   2.0000     -89.007628     -2422.0207
   1   2.0000     -89.005563     -2421.9645
   2   2.0000     -89.002065     -2421.8693
   3   2.0000     -88.995204     -2421.6826
   4   2.0000     -14.473077      -393.8324
   5   2.0000     -14.470644      -393.7662
   6   2.0000     -14.470122      -393.7520
   7   2.0000     -14.463146      -393.5622
   8   2.0000     -14.462483      -393.5442
   9   2.0000     -10.378779      -282.4209
  10   2.0000     -10.377440      -282.3845
  11   2.0000     -10.376723      -282.3650
  12   2.0000     -10.372893      -282.2608
  13   2.0000     -10.341429      -281.4046
  14   2.0000     -10.340868      -281.3893
  15   2.0000     -10.334147      -281.2064
  16   2.0000     -10.332400      -281.1589
  17   2.0000     -10.325394      -280.9683
  18   2.0000     -10.324837      -280.9531
  19   2.0000     -10.319969      -280.8206
  20   2.0000     -10.312605      -280.6203
  21   2.0000     -10.310890      -280.5736
  22   2.0000     -10.307941      -280.4933
  23   2.0000     -10.306565      -280.4559
  24   2.0000     -10.304391      -280.3967
  25   2.0000     -10.301766      -280.3253
  26   2.0000     -10.298733      -280.2428
  27   2.0000     -10.295412      -280.1524
  28   2.0000     -10.294114      -280.1171
  29   2.0000     -10.288288      -279.9585
  30   2.0000     -10.283821      -279.8370
  31   2.0000     -10.282849      -279.8105
  32   2.0000     -10.276702      -279.6433
  33   2.0000     -10.270112      -279.4640
  34   2.0000      -8.103906      -220.5185
  35   2.0000      -8.101809      -220.4614
  36   2.0000      -8.097938      -220.3561
  37   2.0000      -8.090966      -220.1664
  38   2.0000      -6.057047      -164.8206
  39   2.0000      -6.054896      -164.7621
  40   2.0000      -6.053137      -164.7142
  41   2.0000      -6.051356      -164.6658
  42   2.0000      -6.050987      -164.6557
  43   2.0000      -6.050868      -164.6525
  44   2.0000      -6.048882      -164.5984
  45   2.0000      -6.047296      -164.5553
  46   2.0000      -6.044767      -164.4865
  47   2.0000      -6.044403      -164.4766
  48   2.0000      -6.040155      -164.3610
  49   2.0000      -6.037983      -164.3019
  50   2.0000      -1.154857       -31.4252
  51   2.0000      -1.146856       -31.2075
  52   2.0000      -1.107317       -30.1316
  53   2.0000      -1.043658       -28.3994
  54   2.0000      -1.005668       -27.3656
  55   2.0000      -0.992280       -27.0013
  56   2.0000      -0.976695       -26.5772
  57   2.0000      -0.963518       -26.2187
  58   2.0000      -0.955231       -25.9931
  59   2.0000      -0.937419       -25.5085
  60   2.0000      -0.922820       -25.1112
  61   2.0000      -0.914052       -24.8726
  62   2.0000      -0.901067       -24.5193
  63   2.0000      -0.884173       -24.0596
  64   2.0000      -0.874257       -23.7897
  65   2.0000      -0.859906       -23.3992
  66   2.0000      -0.846225       -23.0270
  67   2.0000      -0.840579       -22.8733
  68   2.0000      -0.824728       -22.4420
  69   2.0000      -0.808362       -21.9966
  70   2.0000      -0.783060       -21.3081
  71   2.0000      -0.767667       -20.8893
  72   2.0000      -0.750695       -20.4275
  73   2.0000      -0.725931       -19.7536
  74   2.0000      -0.723316       -19.6824
  75   2.0000      -0.712603       -19.3909
  76   2.0000      -0.694636       -18.9020
  77   2.0000      -0.680195       -18.5090
  78   2.0000      -0.673000       -18.3133
  79   2.0000      -0.663031       -18.0420
  80   2.0000      -0.650834       -17.7101
  81   2.0000      -0.645454       -17.5637
  82   2.0000      -0.625191       -17.0123
  83   2.0000      -0.619699       -16.8629
  84   2.0000      -0.614880       -16.7317
  85   2.0000      -0.602341       -16.3905
  86   2.0000      -0.593829       -16.1589
  87   2.0000      -0.577705       -15.7202
  88   2.0000      -0.574461       -15.6319
  89   2.0000      -0.572499       -15.5785
  90   2.0000      -0.567182       -15.4338
  91   2.0000      -0.561252       -15.2725
  92   2.0000      -0.551725       -15.0132
  93   2.0000      -0.546246       -14.8641
  94   2.0000      -0.541218       -14.7273
  95   2.0000      -0.539727       -14.6867
  96   2.0000      -0.535377       -14.5684
  97   2.0000      -0.528811       -14.3897
  98   2.0000      -0.525064       -14.2877
  99   2.0000      -0.518629       -14.1126
 100   2.0000      -0.512949       -13.9580
 101   2.0000      -0.509178       -13.8555
 102   2.0000      -0.497443       -13.5361
 103   2.0000      -0.487781       -13.2732
 104   2.0000      -0.485232       -13.2038
 105   2.0000      -0.482773       -13.1369
 106   2.0000      -0.477150       -12.9839
 107   2.0000      -0.475320       -12.9341
 108   2.0000      -0.470694       -12.8082
 109   2.0000      -0.467553       -12.7228
 110   2.0000      -0.451729       -12.2922
 111   2.0000      -0.445832       -12.1317
 112   2.0000      -0.445729       -12.1289
 113   2.0000      -0.445396       -12.1199
 114   2.0000      -0.434962       -11.8359
 115   2.0000      -0.425830       -11.5874
 116   2.0000      -0.419664       -11.4196
 117   2.0000      -0.403142       -10.9701
 118   2.0000      -0.399821       -10.8797
 119   2.0000      -0.392864       -10.6904
 120   2.0000      -0.386687       -10.5223
 121   2.0000      -0.376773       -10.2525
 122   2.0000      -0.372763       -10.1434
 123   2.0000      -0.367560       -10.0018
 124   2.0000      -0.357888        -9.7386
 125   2.0000      -0.353162        -9.6100
 126   2.0000      -0.347476        -9.4553
 127   2.0000      -0.332297        -9.0423
 128   2.0000      -0.300582        -8.1793
 129   2.0000      -0.291261        -7.9256
 130   2.0000      -0.279868        -7.6156
 131   0.0000      -0.038101        -1.0368
 132   0.0000      -0.006369        -0.1733
 133   0.0000       0.021956         0.5975
 134   0.0000       0.043707         1.1893
 135   0.0000       0.046915         1.2766

MULLIKEN ATOMIC CHARGES
-----------------------
   0 C :   -0.173423
   1 C :   -0.134669
   2 C :   -0.034944
   3 C :    0.180300
   4 C :   -0.246959
   5 C :   -0.075904
   6 C :   -0.022691
   7 C :    0.191312
   8 N :   -0.301126
   9 C :   -0.228365
  10 C :   -0.095664
  11 C :   -0.276616
  12 C :    0.114531
  13 H :    0.130659
  14 H :    0.236692
  15 H :    0.127356
  16 H :    0.156877
  17 H :    0.112724
  18 H :    0.122552
  19 H :    0.117865
  20 S :    0.057115
  21 C :    0.168260
  22 N :   -0.162632
  23 N :   -0.154188
  24 C :    0.197273
  25 C :    0.043684
  26 N :   -0.181203
  27 N :   -0.186039
  28 C :    0.148268
  29 S :    0.064338
  30 S :    0.063047
  31 C :    0.073257
  32 C :    0.064948
  33 C :   -0.315858
  34 C :    0.004622
  35 C :   -0.189784
  36 C :    0.025405
  37 C :   -0.133619
  38 C :   -0.237474
  39 C :   -0.173979
  40 S :    0.077116
  41 H :    0.138842
  42 H :    0.161161
  43 H :    0.130162
  44 H :    0.129919
  45 H :    0.120485
  46 H :    0.166367
Sum of atomic charges:   -0.0000000

LOEWDIN ATOMIC CHARGES
----------------------
   0 C :   -0.157816
   1 C :   -0.091549
   2 C :   -0.077896
   3 C :   -0.144502
   4 C :   -0.136663
   5 C :   -0.139193
   6 C :   -0.028107
   7 C :   -0.143227
   8 N :    0.201461
   9 C :   -0.118151
  10 C :   -0.141466
  11 C :   -0.123027
  12 C :   -0.116113
  13 H :    0.145419
  14 H :    0.193478
  15 H :    0.147865
  16 H :    0.154122
  17 H :    0.142433
  18 H :    0.144498
  19 H :    0.144025
  20 S :    0.724846
  21 C :   -0.459312
  22 N :    0.048710
  23 N :    0.035483
  24 C :   -0.441396
  25 C :   -0.460804
  26 N :    0.042433
  27 N :    0.047667
  28 C :   -0.374417
  29 S :    0.737011
  30 S :    0.733143
  31 C :   -0.315284
  32 C :   -0.140177
  33 C :   -0.098700
  34 C :   -0.362622
  35 C :   -0.333570
  36 C :   -0.140206
  37 C :   -0.150954
  38 C :   -0.177413
  39 C :   -0.369411
  40 S :    0.700370
  41 H :    0.145895
  42 H :    0.157459
  43 H :    0.160066
  44 H :    0.160045
  45 H :    0.145713
  46 H :    0.129835

  Mayer bond orders larger than 0.1
B(  0-C ,  1-C ) :   1.5355 B(  0-C ,  5-C ) :   1.3511 B(  0-C , 19-H ) :   0.9890
B(  1-C ,  2-C ) :   1.2692 B(  1-C , 16-H ) :   0.9358 B(  2-C ,  3-C ) :   1.3548
B(  2-C ,  6-C ) :   1.0857 B(  3-C ,  4-C ) :   1.2984 B(  3-C ,  8-N ) :   1.1157
B(  4-C ,  5-C ) :   1.4818 B(  4-C , 17-H ) :   0.9792 B(  5-C , 18-H ) :   0.9812
B(  6-C ,  7-C ) :   1.3262 B(  6-C , 12-C ) :   1.2411 B(  7-C ,  8-N ) :   1.1543
B(  7-C ,  9-C ) :   1.2808 B(  8-N , 14-H ) :   0.9125 B(  9-C , 10-C ) :   1.4658
B(  9-C , 45-H ) :   0.9769 B( 10-C , 11-C ) :   1.4207 B( 10-C , 15-H ) :   0.9808
B( 11-C , 12-C ) :   1.3988 B( 11-C , 13-H ) :   0.9592 B( 12-C , 28-C ) :   0.9460
B( 20-S , 21-C ) :   1.2960 B( 20-S , 24-C ) :   1.3029 B( 21-C , 22-N ) :   1.7119
B( 21-C , 25-C ) :   0.9424 B( 21-C , 29-S ) :  -0.1259 B( 22-N , 23-N ) :   1.1476
B( 23-N , 24-C ) :   1.7059 B( 24-C , 30-S ) :  -0.1098 B( 24-C , 33-C ) :  -0.1099
B( 24-C , 34-C ) :   0.9599 B( 25-C , 26-N ) :   1.7167 B( 25-C , 29-S ) :   1.3343
B( 26-N , 27-N ) :   1.1232 B( 27-N , 28-C ) :   1.6509 B( 28-C , 29-S ) :   1.2929
B( 30-S , 31-C ) :   1.3428 B( 30-S , 33-C ) :   0.1402 B( 30-S , 34-C ) :   1.2315
B( 31-C , 32-C ) :   1.4884 B( 31-C , 35-C ) :   0.9413 B( 32-C , 33-C ) :   1.2246
B( 32-C , 34-C ) :  -0.1377 B( 32-C , 37-C ) :   1.0973 B( 33-C , 34-C ) :   1.6192
B( 33-C , 42-H ) :   0.9663 B( 35-C , 36-C ) :   1.5318 B( 35-C , 40-S ) :   1.3320
B( 36-C , 37-C ) :   1.0775 B( 36-C , 38-C ) :   1.2005 B( 37-C , 43-H ) :   0.8993
B( 37-C , 44-H ) :   0.8968 B( 38-C , 39-C ) :   1.7200 B( 38-C , 40-S ) :   0.1433
B( 38-C , 41-H ) :   0.9617 B( 39-C , 40-S ) :   1.2333 B( 39-C , 46-H ) :   0.9389

Dispersion correction           -0.021398402
FINAL SINGLE POINT ENERGY     -2827.081196894382

DIPOLE MOMENT
-------------
                                X             Y             Z
Electronic contribution:    -13.70492      -1.41590       2.99868
Nuclear contribution   :     13.47100       1.76827      -3.17043
                        -----------------------------------------
Total Dipole Moment    :     -0.23392       0.35237      -0.17176
                        -----------------------------------------
Magnitude (a.u.)       :      0.45649
Magnitude (Debye)      :      1.16031

                             ****ORCA TERMINATED NORMALLY****
TOTAL RUN TIME: 0 days 0 hours 10 minutes 12 seconds 658 msec
