                         Program Version 4.0.0 -  RELEASE  -
|  1> #
|  2> !wB97X-D3 def2-TZVP def2/J RIJCOSX Grid5 FinalGrid6 TightSCF
|  3> %pal
|  4>  nprocs 24
|  5> end
|  6> %tddft
|  7>   Mode sTDDFT
|  8>   nroots 2
|  9>   Ethresh 10.0
| 10>   maxcore 5000
| 11>   triplets true
| 12> end
| 13> * xyz 0 1
| 14> C -5.56664797 -2.20716587 1.13970762
| 15> C -4.64312517 -1.25197715 0.72295683
| 16> C -5.10794289 -0.05442163 0.14622335
| 17> C -6.51199421 0.12070654 -0.00844742
| 18> C -7.44487226 -0.83781600 0.41597266
| 19> C -6.95021404 -2.00303893 0.99576734
| 20> C -4.47940459 1.13054135 -0.41781741
| 21> C -5.54296299 1.94556180 -0.90705264
| 22> N -6.75070329 1.33169424 -0.63433205
| 23> C -5.33158879 3.16166469 -1.57374829
| 24> C -4.01261277 3.56563639 -1.76714186
| 25> C -2.94628663 2.79102886 -1.29196599
| 26> C -3.14448664 1.58229341 -0.59849731
| 27> H -1.93016226 3.14687718 -1.43941636
| 28> H -7.66200277 1.69437897 -0.88619225
| 29> H -3.80389478 4.49702596 -2.28553121
| 30> H -3.58180218 -1.44333321 0.84237951
| 31> H -8.51222764 -0.67753718 0.28989248
| 32> H -7.64215524 -2.76881347 1.33585817
| 33> H -5.21196638 -3.13184125 1.58628853
| 34> C 3.62191756 -0.61725638 0.16090182
| 35> N 3.23289501 -1.31427161 1.23759504
| 36> O 1.89908668 -1.10694307 1.38493980
| 37> C 1.44830950 -0.29154539 0.41865966
| 38> C 2.49784156 0.05788907 -0.40670290
| 39> C 0.03498660 0.05957866 0.40033485
| 40> N -0.82720820 -0.40070289 1.31874513
| 41> O -2.04296994 0.11643658 1.00077387
| 42> C -1.95672363 0.88382704 -0.09575977
| 43> C -0.64285617 0.89994474 -0.52896718
| 44> H -0.23187913 1.41055438 -1.38759844
| 45> H 2.46426831 0.70976521 -1.26772062
| 46> C 6.94821144 -1.89855565 2.45076743
| 47> N 5.89299385 -1.48690142 1.75918751
| 48> C 6.11115283 -1.05187799 0.47612375
| 49> C 7.43834165 -1.02789536 -0.06384927
| 50> N 8.51394874 -1.46129194 0.67620007
| 51> C 8.26188582 -1.89280109 1.90565695
| 52> C 7.65391186 -0.54836688 -1.38596313
| 53> C 6.58587144 -0.10671865 -2.13873055
| 54> C 5.27620090 -0.13234673 -1.61484546
| 55> C 5.00955859 -0.59934722 -0.33133552
| 56> H 4.45584380 0.21110872 -2.23993808
| 57> H 6.74465821 0.26151285 -3.14896828
| 58> H 9.11100747 -2.24356912 2.50544695
| 59> H 6.77824685 -2.24483971 3.47770737
| 60> H -6.16497795 3.75865393 -1.93303938
| 61> H 8.66262985 -0.53560477 -1.79002531
| 62> *
| 63> $new_job
| 64> #
| 65> !wB97X-D3 def2-TZVP def2/J RIJCOSX Grid5 FinalGrid6 TightSCF
| 66> %pal
| 67>  nprocs 24
| 68> end
| 69> %elprop
| 70>    dipole     true
| 71>    quadrupole true
| 72> end
| 73> %tddft
| 74>   Mode sTDDFT
| 75>   nroots 2
| 76>   Ethresh 10.0
| 77>   maxcore 5000
| 78> end
| 79> * xyz 0 1
| 80> C -5.56664797 -2.20716587 1.13970762
| 81> C -4.64312517 -1.25197715 0.72295683
| 82> C -5.10794289 -0.05442163 0.14622335
| 83> C -6.51199421 0.12070654 -0.00844742
| 84> C -7.44487226 -0.83781600 0.41597266
| 85> C -6.95021404 -2.00303893 0.99576734
| 86> C -4.47940459 1.13054135 -0.41781741
| 87> C -5.54296299 1.94556180 -0.90705264
| 88> N -6.75070329 1.33169424 -0.63433205
| 89> C -5.33158879 3.16166469 -1.57374829
| 90> C -4.01261277 3.56563639 -1.76714186
| 91> C -2.94628663 2.79102886 -1.29196599
| 92> C -3.14448664 1.58229341 -0.59849731
| 93> H -1.93016226 3.14687718 -1.43941636
| 94> H -7.66200277 1.69437897 -0.88619225
| 95> H -3.80389478 4.49702596 -2.28553121
| 96> H -3.58180218 -1.44333321 0.84237951
| 97> H -8.51222764 -0.67753718 0.28989248
| 98> H -7.64215524 -2.76881347 1.33585817
| 99> H -5.21196638 -3.13184125 1.58628853
|100> C 3.62191756 -0.61725638 0.16090182
|101> N 3.23289501 -1.31427161 1.23759504
|102> O 1.89908668 -1.10694307 1.38493980
|103> C 1.44830950 -0.29154539 0.41865966
|104> C 2.49784156 0.05788907 -0.40670290
|105> C 0.03498660 0.05957866 0.40033485
|106> N -0.82720820 -0.40070289 1.31874513
|107> O -2.04296994 0.11643658 1.00077387
|108> C -1.95672363 0.88382704 -0.09575977
|109> C -0.64285617 0.89994474 -0.52896718
|110> H -0.23187913 1.41055438 -1.38759844
|111> H 2.46426831 0.70976521 -1.26772062
|112> C 6.94821144 -1.89855565 2.45076743
|113> N 5.89299385 -1.48690142 1.75918751
|114> C 6.11115283 -1.05187799 0.47612375
|115> C 7.43834165 -1.02789536 -0.06384927
|116> N 8.51394874 -1.46129194 0.67620007
|117> C 8.26188582 -1.89280109 1.90565695
|118> C 7.65391186 -0.54836688 -1.38596313
|119> C 6.58587144 -0.10671865 -2.13873055
|120> C 5.27620090 -0.13234673 -1.61484546
|121> C 5.00955859 -0.59934722 -0.33133552
|122> H 4.45584380 0.21110872 -2.23993808
|123> H 6.74465821 0.26151285 -3.14896828
|124> H 9.11100747 -2.24356912 2.50544695
|125> H 6.77824685 -2.24483971 3.47770737
|126> H -6.16497795 3.75865393 -1.93303938
|127> H 8.66262985 -0.53560477 -1.79002531
|128> *
|129>
|130>                          ****END OF INPUT****
 Total Charge           Charge          ....    0
 Multiplicity           Mult            ....    1
 Number of Electrons    NEL             ....  222
Dispersion correction           -0.020719600
FINAL SINGLE POINT ENERGY     -1424.012794111907

CARTESIAN COORDINATES (ANGSTROEM)
---------------------------------
  C     -5.566648   -2.207166    1.139708
  C     -4.643125   -1.251977    0.722957
  C     -5.107943   -0.054422    0.146223
  C     -6.511994    0.120707   -0.008447
  C     -7.444872   -0.837816    0.415973
  C     -6.950214   -2.003039    0.995767
  C     -4.479405    1.130541   -0.417817
  C     -5.542963    1.945562   -0.907053
  N     -6.750703    1.331694   -0.634332
  C     -5.331589    3.161665   -1.573748
  C     -4.012613    3.565636   -1.767142
  C     -2.946287    2.791029   -1.291966
  C     -3.144487    1.582293   -0.598497
  H     -1.930162    3.146877   -1.439416
  H     -7.662003    1.694379   -0.886192
  H     -3.803895    4.497026   -2.285531
  H     -3.581802   -1.443333    0.842380
  H     -8.512228   -0.677537    0.289892
  H     -7.642155   -2.768813    1.335858
  H     -5.211966   -3.131841    1.586289
  C      3.621918   -0.617256    0.160902
  N      3.232895   -1.314272    1.237595
  O      1.899087   -1.106943    1.384940
  C      1.448309   -0.291545    0.418660
  C      2.497842    0.057889   -0.406703
  C      0.034987    0.059579    0.400335
  N     -0.827208   -0.400703    1.318745
  O     -2.042970    0.116437    1.000774
  C     -1.956724    0.883827   -0.095760
  C     -0.642856    0.899945   -0.528967
  H     -0.231879    1.410554   -1.387598
  H      2.464268    0.709765   -1.267721
  C      6.948211   -1.898556    2.450767
  N      5.892994   -1.486901    1.759188
  C      6.111153   -1.051878    0.476124
  C      7.438342   -1.027895   -0.063849
  N      8.513949   -1.461292    0.676200
  C      8.261886   -1.892801    1.905657
  C      7.653912   -0.548367   -1.385963
  C      6.585871   -0.106719   -2.138731
  C      5.276201   -0.132347   -1.614845
  C      5.009559   -0.599347   -0.331336
  H      4.455844    0.211109   -2.239938
  H      6.744658    0.261513   -3.148968
  H      9.111007   -2.243569    2.505447
  H      6.778247   -2.244840    3.477707
  H     -6.164978    3.758654   -1.933039
  H      8.662630   -0.535605   -1.790025

 Multiplicity           Mult            ....    1
 Number of Electrons    NEL             ....  222
 Basis Dimension        Dim             .... 1113

ORBITAL ENERGIES
----------------

  NO   OCC          E(Eh)            E(eV)
   0   2.0000     -19.339109      -526.2439
   1   2.0000     -19.329547      -525.9837
   2   2.0000     -14.482386      -394.0858
   3   2.0000     -14.473253      -393.8372
   4   2.0000     -14.472905      -393.8278
   5   2.0000     -14.447858      -393.1462
   6   2.0000     -14.442013      -392.9872
   7   2.0000     -10.369890      -282.1791
   8   2.0000     -10.367429      -282.1121
   9   2.0000     -10.344956      -281.5006
  10   2.0000     -10.339219      -281.3445
  11   2.0000     -10.336888      -281.2810
  12   2.0000     -10.336718      -281.2764
  13   2.0000     -10.335266      -281.2369
  14   2.0000     -10.333722      -281.1949
  15   2.0000     -10.333486      -281.1884
  16   2.0000     -10.329393      -281.0771
  17   2.0000     -10.321454      -280.8610
  18   2.0000     -10.321032      -280.8496
  19   2.0000     -10.308837      -280.5177
  20   2.0000     -10.306631      -280.4577
  21   2.0000     -10.304358      -280.3958
  22   2.0000     -10.302516      -280.3457
  23   2.0000     -10.301610      -280.3211
  24   2.0000     -10.301421      -280.3159
  25   2.0000     -10.300117      -280.2804
  26   2.0000     -10.297752      -280.2161
  27   2.0000     -10.295430      -280.1529
  28   2.0000     -10.293383      -280.0972
  29   2.0000     -10.288060      -279.9523
  30   2.0000     -10.286681      -279.9148
  31   2.0000     -10.283844      -279.8376
  32   2.0000     -10.275168      -279.6015
  33   2.0000      -1.288178       -35.0531
  34   2.0000      -1.277976       -34.7755
  35   2.0000      -1.110702       -30.2237
  36   2.0000      -1.100173       -29.9372
  37   2.0000      -1.028907       -27.9980
  38   2.0000      -1.012506       -27.5517
  39   2.0000      -0.997136       -27.1335
  40   2.0000      -0.985514       -26.8172
  41   2.0000      -0.969406       -26.3789
  42   2.0000      -0.966897       -26.3106
  43   2.0000      -0.939286       -25.5593
  44   2.0000      -0.917466       -24.9655
  45   2.0000      -0.905261       -24.6334
  46   2.0000      -0.888188       -24.1688
  47   2.0000      -0.882131       -24.0040
  48   2.0000      -0.874590       -23.7988
  49   2.0000      -0.849495       -23.1159
  50   2.0000      -0.844080       -22.9686
  51   2.0000      -0.791186       -21.5293
  52   2.0000      -0.781373       -21.2622
  53   2.0000      -0.774933       -21.0870
  54   2.0000      -0.764621       -20.8064
  55   2.0000      -0.756246       -20.5785
  56   2.0000      -0.735975       -20.0269
  57   2.0000      -0.725334       -19.7373
  58   2.0000      -0.717810       -19.5326
  59   2.0000      -0.711782       -19.3686
  60   2.0000      -0.703172       -19.1343
  61   2.0000      -0.669245       -18.2111
  62   2.0000      -0.666303       -18.1310
  63   2.0000      -0.653026       -17.7697
  64   2.0000      -0.638864       -17.3844
  65   2.0000      -0.631084       -17.1727
  66   2.0000      -0.619090       -16.8463
  67   2.0000      -0.615943       -16.7607
  68   2.0000      -0.608140       -16.5483
  69   2.0000      -0.605994       -16.4899
  70   2.0000      -0.599522       -16.3138
  71   2.0000      -0.587641       -15.9905
  72   2.0000      -0.576985       -15.7006
  73   2.0000      -0.573041       -15.5932
  74   2.0000      -0.566643       -15.4191
  75   2.0000      -0.562291       -15.3007
  76   2.0000      -0.551022       -14.9941
  77   2.0000      -0.546942       -14.8831
  78   2.0000      -0.545228       -14.8364
  79   2.0000      -0.542807       -14.7705
  80   2.0000      -0.534844       -14.5538
  81   2.0000      -0.533103       -14.5065
  82   2.0000      -0.529323       -14.4036
  83   2.0000      -0.526720       -14.3328
  84   2.0000      -0.523618       -14.2484
  85   2.0000      -0.505804       -13.7636
  86   2.0000      -0.496716       -13.5163
  87   2.0000      -0.476444       -12.9647
  88   2.0000      -0.475440       -12.9374
  89   2.0000      -0.472770       -12.8647
  90   2.0000      -0.471678       -12.8350
  91   2.0000      -0.470743       -12.8096
  92   2.0000      -0.468160       -12.7393
  93   2.0000      -0.448597       -12.2069
  94   2.0000      -0.446919       -12.1613
  95   2.0000      -0.444391       -12.0925
  96   2.0000      -0.438484       -11.9318
  97   2.0000      -0.428705       -11.6657
  98   2.0000      -0.421603       -11.4724
  99   2.0000      -0.411201       -11.1894
 100   2.0000      -0.403279       -10.9738
 101   2.0000      -0.395207       -10.7541
 102   2.0000      -0.392808       -10.6888
 103   2.0000      -0.374205       -10.1826
 104   2.0000      -0.351466        -9.5639
 105   2.0000      -0.344584        -9.3766
 106   2.0000      -0.340380        -9.2622
 107   2.0000      -0.335744        -9.1361
 108   2.0000      -0.320834        -8.7303
 109   2.0000      -0.303869        -8.2687
 110   2.0000      -0.292747        -7.9661
 111   0.0000      -0.021180        -0.5763
 112   0.0000      -0.001523        -0.0414
 113   0.0000       0.021881         0.5954
 114   0.0000       0.035514         0.9664
 115   0.0000       0.047816         1.3011

MULLIKEN ATOMIC CHARGES
-----------------------
   0 C :   -0.176371
   1 C :   -0.136105
   2 C :   -0.037834
   3 C :    0.166637
   4 C :   -0.240648
   5 C :   -0.074315
   6 C :   -0.022823
   7 C :    0.180696
   8 N :   -0.301815
   9 C :   -0.225795
  10 C :   -0.087857
  11 C :   -0.284895
  12 C :    0.069789
  13 H :    0.119260
  14 H :    0.237429
  15 H :    0.125277
  16 H :    0.154186
  17 H :    0.114247
  18 H :    0.123334
  19 H :    0.122931
  20 C :    0.227423
  21 N :   -0.103092
  22 O :   -0.099204
  23 C :    0.188182
  24 C :   -0.285507
  25 C :    0.141514
  26 N :   -0.160735
  27 O :   -0.128688
  28 C :    0.299685
  29 C :   -0.270681
  30 H :    0.160778
  31 H :    0.154668
  32 C :   -0.035868
  33 N :   -0.236035
  34 C :    0.036150
  35 C :    0.172075
  36 N :   -0.246067
  37 C :    0.005304
  38 C :   -0.233624
  39 C :   -0.087736
  40 C :   -0.178278
  41 C :    0.071180
  42 H :    0.120499
  43 H :    0.129273
  44 H :    0.138562
  45 H :    0.139487
  46 H :    0.120455
  47 H :    0.134951
Sum of atomic charges:   -0.0000000

LOEWDIN ATOMIC CHARGES
----------------------
   0 C :   -0.155293
   1 C :   -0.095539
   2 C :   -0.080578
   3 C :   -0.144502
   4 C :   -0.134129
   5 C :   -0.138204
   6 C :   -0.033931
   7 C :   -0.143145
   8 N :    0.201920
   9 C :   -0.120839
  10 C :   -0.141358
  11 C :   -0.109230
  12 C :   -0.082095
  13 H :    0.149462
  14 H :    0.193889
  15 H :    0.147341
  16 H :    0.152796
  17 H :    0.143135
  18 H :    0.145181
  19 H :    0.145361
  20 C :   -0.207165
  21 N :    0.065215
  22 O :    0.316036
  23 C :   -0.222076
  24 C :   -0.123465
  25 C :   -0.227923
  26 N :    0.047749
  27 O :    0.310830
  28 C :   -0.198693
  29 C :   -0.122195
  30 H :    0.147725
  31 H :    0.145022
  32 C :   -0.197628
  33 N :    0.193694
  34 C :   -0.125370
  35 C :   -0.166952
  36 N :    0.166073
  37 C :   -0.200906
  38 C :   -0.091636
  39 C :   -0.133194
  40 C :   -0.087961
  41 C :   -0.072594
  42 H :    0.150466
  43 H :    0.149199
  44 H :    0.142137
  45 H :    0.143934
  46 H :    0.145494
  47 H :    0.153945

  Mayer bond orders larger than 0.1
B(  0-C ,  1-C ) :   1.5353 B(  0-C ,  5-C ) :   1.3520 B(  0-C , 19-H ) :   0.9865
B(  1-C ,  2-C ) :   1.2675 B(  1-C , 16-H ) :   0.9366 B(  2-C ,  3-C ) :   1.3666
B(  2-C ,  6-C ) :   1.0719 B(  3-C ,  4-C ) :   1.3018 B(  3-C ,  8-N ) :   1.1170
B(  4-C ,  5-C ) :   1.4781 B(  4-C , 17-H ) :   0.9794 B(  5-C , 18-H ) :   0.9818
B(  6-C ,  7-C ) :   1.3266 B(  6-C , 12-C ) :   1.2474 B(  7-C ,  8-N ) :   1.1560
B(  7-C ,  9-C ) :   1.2869 B(  8-N , 14-H ) :   0.9121 B(  9-C , 10-C ) :   1.4610
B(  9-C , 46-H ) :   0.9745 B( 10-C , 11-C ) :   1.4059 B( 10-C , 15-H ) :   0.9843
B( 11-C , 12-C ) :   1.4345 B( 11-C , 13-H ) :   0.9751 B( 12-C , 28-C ) :   0.9629
B( 20-C , 21-N ) :   1.6653 B( 20-C , 24-C ) :   1.2484 B( 20-C , 41-C ) :   0.9076
B( 21-N , 22-O ) :   0.9815 B( 21-N , 23-C ) :   0.1214 B( 22-O , 23-C ) :   1.2289
B( 23-C , 24-C ) :   1.6420 B( 23-C , 25-C ) :   0.9824 B( 24-C , 31-H ) :   0.9083
B( 25-C , 26-N ) :   1.6568 B( 25-C , 29-C ) :   1.2846 B( 26-N , 27-O ) :   0.9842
B( 26-N , 28-C ) :   0.1255 B( 27-O , 28-C ) :   1.1724 B( 28-C , 29-C ) :   1.6082
B( 29-C , 30-H ) :   0.9220 B( 32-C , 33-N ) :   1.6513 B( 32-C , 37-C ) :   1.2297
B( 32-C , 45-H ) :   0.9682 B( 33-N , 34-C ) :   1.3165 B( 34-C , 35-C ) :   1.2849
B( 34-C , 41-C ) :   1.1854 B( 35-C , 36-N ) :   1.2920 B( 35-C , 38-C ) :   1.2332
B( 36-N , 37-C ) :   1.6135 B( 37-C , 44-H ) :   0.9645 B( 38-C , 39-C ) :   1.5468
B( 38-C , 47-H ) :   0.9782 B( 39-C , 40-C ) :   1.3065 B( 39-C , 43-H ) :   0.9878
B( 40-C , 41-C ) :   1.4924 B( 40-C , 42-H ) :   0.9685

Dispersion correction           -0.020719600
FINAL SINGLE POINT ENERGY     -1424.012794094824

DIPOLE MOMENT
-------------
                                X             Y             Z
Electronic contribution:      8.05040      -2.32276       5.61568
Nuclear contribution   :     -9.07177       3.75399      -7.40295
                        -----------------------------------------
Total Dipole Moment    :     -1.02137       1.43123      -1.78727
                        -----------------------------------------
Magnitude (a.u.)       :      2.50718
Magnitude (Debye)      :      6.37274

                             ****ORCA TERMINATED NORMALLY****
TOTAL RUN TIME: 0 days 0 hours 8 minutes 58 seconds 402 msec
