                         Program Version 4.0.0 -  RELEASE  -
|  1> #
|  2> !wB97X-D3 def2-TZVP def2/J RIJCOSX Grid5 FinalGrid6 TightSCF
|  3> %pal
|  4>  nprocs 24
|  5> end
|  6> %tddft
|  7>   Mode sTDDFT
|  8>   nroots 2
|  9>   Ethresh 10.0
| 10>   maxcore 5000
| 11>   triplets true
| 12> end
| 13> * xyz 0 1
| 14> C -4.38811383 2.94317004 -0.38621388
| 15> C -3.74053311 1.75046978 -0.07505780
| 16> C -4.50978121 0.62324392 0.27161004
| 17> C -5.92756458 0.74803899 0.27904379
| 18> C -6.58242704 1.95080054 -0.02728748
| 19> C -5.79014330 3.04675071 -0.35898529
| 20> C -4.21363542 -0.75739195 0.62118228
| 21> C -5.47644289 -1.39648312 0.80209280
| 22> N -6.48721034 -0.47357021 0.60987966
| 23> C -5.61026505 -2.75960250 1.10396363
| 24> C -4.44084055 -3.50929791 1.21195204
| 25> C -3.18642248 -2.91190717 1.03792680
| 26> C -3.03371821 -1.53951064 0.76065005
| 27> H -2.29519242 -3.52597245 1.14581053
| 28> H -7.47876112 -0.67096049 0.66696061
| 29> H -4.49830348 -4.57026457 1.43719771
| 30> H -2.65602318 1.69777131 -0.09793816
| 31> H -7.66675656 2.02060560 -0.01075939
| 32> H -6.26141849 3.99524414 -0.60262729
| 33> H -3.79882493 3.81612044 -0.65331685
| 34> S 3.11202223 0.91396271 0.38832473
| 35> C 4.50008087 -0.09357734 -0.08409304
| 36> N 4.16246743 -1.35023322 -0.34775207
| 37> N 2.83125117 -1.60446097 -0.20244393
| 38> C 2.12918770 -0.54272253 0.17597458
| 39> C 0.70161107 -0.55680402 0.39651089
| 40> N 0.00582531 0.50619010 0.77979099
| 41> N -1.32956813 0.25443748 0.92452430
| 42> C -1.67683407 -0.99471127 0.65092860
| 43> S -0.28770989 -2.00629154 0.18276314
| 44> N 6.98393146 -1.74225586 -0.89160244
| 45> C 6.95560812 -0.44103316 -0.55849945
| 46> C 8.29275985 0.06298428 -0.64174547
| 47> N 9.09293863 -0.94999355 -1.02357431
| 48> O 8.27825106 -2.02071358 -1.16572063
| 49> C 8.58613115 1.42496236 -0.34396630
| 50> C 7.52768001 2.22564769 0.02489113
| 51> C 6.19460025 1.73140339 0.10995913
| 52> C 5.86317617 0.41122348 -0.17126566
| 53> H 5.40801908 2.42179092 0.40822959
| 54> H 7.70089196 3.27199937 0.26191127
| 55> H -6.58823478 -3.21338916 1.23723271
| 56> H 9.59829157 1.81432995 -0.40496156
| 57> *
| 58> $new_job
| 59> #
| 60> !wB97X-D3 def2-TZVP def2/J RIJCOSX Grid5 FinalGrid6 TightSCF
| 61> %pal
| 62>  nprocs 24
| 63> end
| 64> %elprop
| 65>    dipole     true
| 66>    quadrupole true
| 67> end
| 68> %tddft
| 69>   Mode sTDDFT
| 70>   nroots 2
| 71>   Ethresh 10.0
| 72>   maxcore 5000
| 73> end
| 74> * xyz 0 1
| 75> C -4.38811383 2.94317004 -0.38621388
| 76> C -3.74053311 1.75046978 -0.07505780
| 77> C -4.50978121 0.62324392 0.27161004
| 78> C -5.92756458 0.74803899 0.27904379
| 79> C -6.58242704 1.95080054 -0.02728748
| 80> C -5.79014330 3.04675071 -0.35898529
| 81> C -4.21363542 -0.75739195 0.62118228
| 82> C -5.47644289 -1.39648312 0.80209280
| 83> N -6.48721034 -0.47357021 0.60987966
| 84> C -5.61026505 -2.75960250 1.10396363
| 85> C -4.44084055 -3.50929791 1.21195204
| 86> C -3.18642248 -2.91190717 1.03792680
| 87> C -3.03371821 -1.53951064 0.76065005
| 88> H -2.29519242 -3.52597245 1.14581053
| 89> H -7.47876112 -0.67096049 0.66696061
| 90> H -4.49830348 -4.57026457 1.43719771
| 91> H -2.65602318 1.69777131 -0.09793816
| 92> H -7.66675656 2.02060560 -0.01075939
| 93> H -6.26141849 3.99524414 -0.60262729
| 94> H -3.79882493 3.81612044 -0.65331685
| 95> S 3.11202223 0.91396271 0.38832473
| 96> C 4.50008087 -0.09357734 -0.08409304
| 97> N 4.16246743 -1.35023322 -0.34775207
| 98> N 2.83125117 -1.60446097 -0.20244393
| 99> C 2.12918770 -0.54272253 0.17597458
|100> C 0.70161107 -0.55680402 0.39651089
|101> N 0.00582531 0.50619010 0.77979099
|102> N -1.32956813 0.25443748 0.92452430
|103> C -1.67683407 -0.99471127 0.65092860
|104> S -0.28770989 -2.00629154 0.18276314
|105> N 6.98393146 -1.74225586 -0.89160244
|106> C 6.95560812 -0.44103316 -0.55849945
|107> C 8.29275985 0.06298428 -0.64174547
|108> N 9.09293863 -0.94999355 -1.02357431
|109> O 8.27825106 -2.02071358 -1.16572063
|110> C 8.58613115 1.42496236 -0.34396630
|111> C 7.52768001 2.22564769 0.02489113
|112> C 6.19460025 1.73140339 0.10995913
|113> C 5.86317617 0.41122348 -0.17126566
|114> H 5.40801908 2.42179092 0.40822959
|115> H 7.70089196 3.27199937 0.26191127
|116> H -6.58823478 -3.21338916 1.23723271
|117> H 9.59829157 1.81432995 -0.40496156
|118> *
|119>
|120>                          ****END OF INPUT****
 Total Charge           Charge          ....    0
 Multiplicity           Mult            ....    1
 Number of Electrons    NEL             ....  232
Dispersion correction           -0.019053241
FINAL SINGLE POINT ENERGY     -2099.809975332857

CARTESIAN COORDINATES (ANGSTROEM)
---------------------------------
  C     -4.388114    2.943170   -0.386214
  C     -3.740533    1.750470   -0.075058
  C     -4.509781    0.623244    0.271610
  C     -5.927565    0.748039    0.279044
  C     -6.582427    1.950801   -0.027287
  C     -5.790143    3.046751   -0.358985
  C     -4.213635   -0.757392    0.621182
  C     -5.476443   -1.396483    0.802093
  N     -6.487210   -0.473570    0.609880
  C     -5.610265   -2.759602    1.103964
  C     -4.440841   -3.509298    1.211952
  C     -3.186422   -2.911907    1.037927
  C     -3.033718   -1.539511    0.760650
  H     -2.295192   -3.525972    1.145811
  H     -7.478761   -0.670960    0.666961
  H     -4.498303   -4.570265    1.437198
  H     -2.656023    1.697771   -0.097938
  H     -7.666757    2.020606   -0.010759
  H     -6.261418    3.995244   -0.602627
  H     -3.798825    3.816120   -0.653317
  S      3.112022    0.913963    0.388325
  C      4.500081   -0.093577   -0.084093
  N      4.162467   -1.350233   -0.347752
  N      2.831251   -1.604461   -0.202444
  C      2.129188   -0.542723    0.175975
  C      0.701611   -0.556804    0.396511
  N      0.005825    0.506190    0.779791
  N     -1.329568    0.254437    0.924524
  C     -1.676834   -0.994711    0.650929
  S     -0.287710   -2.006292    0.182763
  N      6.983931   -1.742256   -0.891602
  C      6.955608   -0.441033   -0.558499
  C      8.292760    0.062984   -0.641745
  N      9.092939   -0.949994   -1.023574
  O      8.278251   -2.020714   -1.165721
  C      8.586131    1.424962   -0.343966
  C      7.527680    2.225648    0.024891
  C      6.194600    1.731403    0.109959
  C      5.863176    0.411223   -0.171266
  H      5.408019    2.421791    0.408230
  H      7.700892    3.271999    0.261911
  H     -6.588235   -3.213389    1.237233
  H      9.598292    1.814330   -0.404962

 Multiplicity           Mult            ....    1
 Number of Electrons    NEL             ....  232
 Basis Dimension        Dim             .... 1070

ORBITAL ENERGIES
----------------

  NO   OCC          E(Eh)            E(eV)
   0   2.0000     -89.018007     -2422.3031
   1   2.0000     -89.012535     -2422.1542
   2   2.0000     -19.383341      -527.4475
   3   2.0000     -14.508949      -394.8086
   4   2.0000     -14.507118      -394.7588
   5   2.0000     -14.480229      -394.0271
   6   2.0000     -14.478978      -393.9930
   7   2.0000     -14.474787      -393.8790
   8   2.0000     -14.473868      -393.8540
   9   2.0000     -14.468806      -393.7162
  10   2.0000     -10.388786      -282.6932
  11   2.0000     -10.385173      -282.5949
  12   2.0000     -10.384145      -282.5670
  13   2.0000     -10.379682      -282.4455
  14   2.0000     -10.352334      -281.7013
  15   2.0000     -10.351881      -281.6890
  16   2.0000     -10.350900      -281.6623
  17   2.0000     -10.338001      -281.3113
  18   2.0000     -10.335968      -281.2560
  19   2.0000     -10.332144      -281.1519
  20   2.0000     -10.329175      -281.0711
  21   2.0000     -10.328511      -281.0531
  22   2.0000     -10.324311      -280.9388
  23   2.0000     -10.308627      -280.5120
  24   2.0000     -10.302712      -280.3511
  25   2.0000     -10.299213      -280.2558
  26   2.0000     -10.298449      -280.2350
  27   2.0000     -10.292197      -280.0649
  28   2.0000     -10.287429      -279.9352
  29   2.0000     -10.286486      -279.9095
  30   2.0000     -10.280790      -279.7545
  31   2.0000     -10.273980      -279.5692
  32   2.0000      -8.114249      -220.7999
  33   2.0000      -8.108719      -220.6495
  34   2.0000      -6.067280      -165.0991
  35   2.0000      -6.063496      -164.9961
  36   2.0000      -6.061800      -164.9500
  37   2.0000      -6.061320      -164.9369
  38   2.0000      -6.057874      -164.8431
  39   2.0000      -6.055814      -164.7871
  40   2.0000      -1.329206       -36.1695
  41   2.0000      -1.164291       -31.6820
  42   2.0000      -1.155419       -31.4406
  43   2.0000      -1.111100       -30.2346
  44   2.0000      -1.041554       -28.3421
  45   2.0000      -1.036594       -28.2072
  46   2.0000      -0.998733       -27.1769
  47   2.0000      -0.984954       -26.8020
  48   2.0000      -0.969506       -26.3816
  49   2.0000      -0.966071       -26.2881
  50   2.0000      -0.951550       -25.8930
  51   2.0000      -0.940888       -25.6029
  52   2.0000      -0.922002       -25.0890
  53   2.0000      -0.905257       -24.6333
  54   2.0000      -0.897855       -24.4319
  55   2.0000      -0.878611       -23.9082
  56   2.0000      -0.850318       -23.1383
  57   2.0000      -0.844515       -22.9804
  58   2.0000      -0.817808       -22.2537
  59   2.0000      -0.792154       -21.5556
  60   2.0000      -0.776122       -21.1193
  61   2.0000      -0.773313       -21.0429
  62   2.0000      -0.756280       -20.5794
  63   2.0000      -0.731356       -19.9012
  64   2.0000      -0.727487       -19.7959
  65   2.0000      -0.716966       -19.5096
  66   2.0000      -0.703001       -19.1296
  67   2.0000      -0.679383       -18.4869
  68   2.0000      -0.668141       -18.1810
  69   2.0000      -0.662660       -18.0319
  70   2.0000      -0.651299       -17.7228
  71   2.0000      -0.629622       -17.1329
  72   2.0000      -0.626718       -17.0539
  73   2.0000      -0.624832       -17.0025
  74   2.0000      -0.620213       -16.8768
  75   2.0000      -0.616090       -16.7647
  76   2.0000      -0.603518       -16.4226
  77   2.0000      -0.581916       -15.8347
  78   2.0000      -0.576896       -15.6981
  79   2.0000      -0.570842       -15.5334
  80   2.0000      -0.561793       -15.2872
  81   2.0000      -0.556497       -15.1431
  82   2.0000      -0.552579       -15.0364
  83   2.0000      -0.547714       -14.9040
  84   2.0000      -0.543781       -14.7970
  85   2.0000      -0.539550       -14.6819
  86   2.0000      -0.533081       -14.5059
  87   2.0000      -0.529689       -14.4136
  88   2.0000      -0.523191       -14.2368
  89   2.0000      -0.522447       -14.2165
  90   2.0000      -0.510162       -13.8822
  91   2.0000      -0.506502       -13.7826
  92   2.0000      -0.501716       -13.6524
  93   2.0000      -0.481206       -13.0943
  94   2.0000      -0.475749       -12.9458
  95   2.0000      -0.471565       -12.8319
  96   2.0000      -0.457300       -12.4438
  97   2.0000      -0.449845       -12.2409
  98   2.0000      -0.445867       -12.1327
  99   2.0000      -0.444994       -12.1089
 100   2.0000      -0.438162       -11.9230
 101   2.0000      -0.429377       -11.6840
 102   2.0000      -0.420460       -11.4413
 103   2.0000      -0.418580       -11.3901
 104   2.0000      -0.407462       -11.0876
 105   2.0000      -0.405689       -11.0394
 106   2.0000      -0.399839       -10.8802
 107   2.0000      -0.393999       -10.7212
 108   2.0000      -0.386745       -10.5239
 109   2.0000      -0.379364       -10.3230
 110   2.0000      -0.374355       -10.1867
 111   2.0000      -0.368180       -10.0187
 112   2.0000      -0.344673        -9.3790
 113   2.0000      -0.324011        -8.8168
 114   2.0000      -0.303726        -8.2648
 115   2.0000      -0.293780        -7.9942
 116   0.0000      -0.057697        -1.5700
 117   0.0000      -0.025455        -0.6927
 118   0.0000       0.008220         0.2237
 119   0.0000       0.037800         1.0286
 120   0.0000       0.049317         1.3420

MULLIKEN ATOMIC CHARGES
-----------------------
   0 C :   -0.173102
   1 C :   -0.131854
   2 C :   -0.030753
   3 C :    0.176335
   4 C :   -0.242685
   5 C :   -0.076766
   6 C :   -0.025494
   7 C :    0.188534
   8 N :   -0.301729
   9 C :   -0.223614
  10 C :   -0.094125
  11 C :   -0.279459
  12 C :    0.115767
  13 H :    0.130603
  14 H :    0.237549
  15 H :    0.128948
  16 H :    0.155241
  17 H :    0.113377
  18 H :    0.123016
  19 H :    0.118074
  20 S :    0.057677
  21 C :    0.147038
  22 N :   -0.088946
  23 N :   -0.193895
  24 C :    0.109817
  25 C :    0.130204
  26 N :   -0.169958
  27 N :   -0.190506
  28 C :    0.162539
  29 S :    0.072782
  30 N :   -0.041938
  31 C :    0.019647
  32 C :    0.021670
  33 N :   -0.074342
  34 O :    0.007091
  35 C :   -0.163285
  36 C :   -0.108130
  37 C :   -0.177107
  38 C :    0.004127
  39 H :    0.147861
  40 H :    0.144445
  41 H :    0.122470
  42 H :    0.152876
Sum of atomic charges:    0.0000000

LOEWDIN ATOMIC CHARGES
----------------------
   0 C :   -0.157699
   1 C :   -0.092181
   2 C :   -0.078067
   3 C :   -0.144068
   4 C :   -0.135643
   5 C :   -0.138428
   6 C :   -0.027905
   7 C :   -0.142831
   8 N :    0.202101
   9 C :   -0.116194
  10 C :   -0.140300
  11 C :   -0.122034
  12 C :   -0.116732
  13 H :    0.145781
  14 H :    0.193914
  15 H :    0.148424
  16 H :    0.153627
  17 H :    0.142824
  18 H :    0.144802
  19 H :    0.143975
  20 S :    0.733510
  21 C :   -0.390805
  22 N :    0.070518
  23 N :    0.051947
  24 C :   -0.452278
  25 C :   -0.461698
  26 N :    0.045271
  27 N :    0.047971
  28 C :   -0.371690
  29 S :    0.744676
  30 N :    0.064054
  31 C :   -0.187719
  32 C :   -0.231177
  33 N :    0.041370
  34 O :    0.228417
  35 C :   -0.083054
  36 C :   -0.122395
  37 C :   -0.081096
  38 C :   -0.118253
  39 H :    0.151947
  40 H :    0.153827
  41 H :    0.146252
  42 H :    0.157034

  Mayer bond orders larger than 0.1
B(  0-C ,  1-C ) :   1.5364 B(  0-C ,  5-C ) :   1.3513 B(  0-C , 19-H ) :   0.9871
B(  1-C ,  2-C ) :   1.2689 B(  1-C , 16-H ) :   0.9364 B(  2-C ,  3-C ) :   1.3562
B(  2-C ,  6-C ) :   1.0816 B(  3-C ,  4-C ) :   1.2992 B(  3-C ,  8-N ) :   1.1160
B(  4-C ,  5-C ) :   1.4828 B(  4-C , 17-H ) :   0.9779 B(  5-C , 18-H ) :   0.9813
B(  6-C ,  7-C ) :   1.3233 B(  6-C , 12-C ) :   1.2441 B(  7-C ,  8-N ) :   1.1549
B(  7-C ,  9-C ) :   1.2870 B(  8-N , 14-H ) :   0.9120 B(  9-C , 10-C ) :   1.4672
B(  9-C , 41-H ) :   0.9732 B( 10-C , 11-C ) :   1.4202 B( 10-C , 15-H ) :   0.9798
B( 11-C , 12-C ) :   1.4012 B( 11-C , 13-H ) :   0.9608 B( 12-C , 28-C ) :   0.9502
B( 20-S , 21-C ) :   1.3009 B( 20-S , 24-C ) :   1.3133 B( 21-C , 22-N ) :   1.7195
B( 21-C , 38-C ) :   0.9642 B( 22-N , 23-N ) :   1.1449 B( 23-N , 24-C ) :   1.6904
B( 24-C , 25-C ) :   0.9373 B( 25-C , 26-N ) :   1.7014 B( 25-C , 29-S ) :   1.3062
B( 26-N , 27-N ) :   1.1281 B( 27-N , 28-C ) :   1.6376 B( 28-C , 29-S ) :   1.2927
B( 30-N , 31-C ) :   1.5834 B( 30-N , 33-N ) :   0.1975 B( 30-N , 34-O ) :   1.0357
B( 31-C , 32-C ) :   1.1826 B( 31-C , 38-C ) :   1.1050 B( 32-C , 33-N ) :   1.6110
B( 32-C , 35-C ) :   1.1398 B( 33-N , 34-O ) :   1.0667 B( 35-C , 36-C ) :   1.6251
B( 35-C , 42-H ) :   0.9713 B( 36-C , 37-C ) :   1.2455 B( 36-C , 40-H ) :   0.9719
B( 37-C , 38-C ) :   1.5615 B( 37-C , 39-H ) :   0.9496

Dispersion correction           -0.019053241
FINAL SINGLE POINT ENERGY     -2099.809975262894

DIPOLE MOMENT
-------------
                                X             Y             Z
Electronic contribution:     23.11069      -8.07130      -1.36141
Nuclear contribution   :    -24.63659       9.28426       1.81068
                        -----------------------------------------
Total Dipole Moment    :     -1.52591       1.21296       0.44927
                        -----------------------------------------
Magnitude (a.u.)       :      2.00037
Magnitude (Debye)      :      5.08455

                             ****ORCA TERMINATED NORMALLY****
TOTAL RUN TIME: 0 days 0 hours 11 minutes 24 seconds 937 msec
