                         Program Version 4.0.0 -  RELEASE  -
|  1> #
|  2> !wB97X-D3 def2-TZVP def2/J RIJCOSX Grid5 FinalGrid6 TightSCF
|  3> %pal
|  4>  nprocs 24
|  5> end
|  6> %tddft
|  7>   Mode sTDDFT
|  8>   nroots 2
|  9>   Ethresh 10.0
| 10>   maxcore 5000
| 11>   triplets true
| 12> end
| 13> * xyz 0 1
| 14> C -5.01087083 0.12504497 2.87173788
| 15> C -4.09398855 0.18080779 1.82524373
| 16> C -4.56191034 0.11125846 0.49895117
| 17> C -5.96093195 -0.03732993 0.28289841
| 18> C -6.88745047 -0.08791706 1.33560868
| 19> C -6.39073841 -0.00079306 2.63338286
| 20> C -3.93852465 0.10876142 -0.81582455
| 21> C -4.99832087 -0.06859254 -1.75397976
| 22> N -6.20109214 -0.13395815 -1.07653373
| 23> C -4.78719800 -0.17557017 -3.13673557
| 24> C -3.47167708 -0.11625673 -3.59073217
| 25> C -2.40945703 0.06470670 -2.69530423
| 26> C -2.60897586 0.19989691 -1.30855682
| 27> H -1.39723904 0.12965122 -3.08519152
| 28> H -7.10833314 -0.26874617 -1.50571794
| 29> H -3.26287966 -0.20290579 -4.65308980
| 30> H -3.03500746 0.27133707 2.04359164
| 31> H -7.95126790 -0.19770373 1.14310503
| 32> H -7.07771970 -0.03736973 3.47455055
| 33> H -4.65380755 0.17959540 3.89633745
| 34> C 4.16483317 0.38110368 0.97625529
| 35> N 3.74502482 1.06514861 2.05287320
| 36> O 2.40106741 1.21080454 1.92699490
| 37> C 1.97724414 0.63064654 0.79306232
| 38> C 3.05649210 0.07770831 0.13250101
| 39> C 0.55738911 0.67613963 0.47185838
| 40> N -0.33593642 1.28114133 1.26870058
| 41> O -1.54800707 1.13106179 0.67321649
| 42> C -1.42889180 0.44371581 -0.47232412
| 43> C -0.09618253 0.12818229 -0.66881102
| 44> H 0.34304290 -0.42722748 -1.48454203
| 45> H 3.05574361 -0.45869450 -0.80501395
| 46> N 7.56972910 -1.68685760 -1.67651442
| 47> C 7.43155437 -1.00564638 -0.52381998
| 48> C 6.04493157 -0.68826623 -0.36164028
| 49> N 5.38358052 -1.18722428 -1.42216806
| 50> O 6.32347589 -1.78079430 -2.19420318
| 51> C 5.57840294 0.04210883 0.78389327
| 52> C 6.54978032 0.41040251 1.70352689
| 53> C 7.92938679 0.09158493 1.53686350
| 54> C 8.39599362 -0.60726356 0.44655686
| 55> H 8.62649686 0.41754219 2.30469981
| 56> H 6.25023575 0.96498767 2.58878030
| 57> H -5.61773497 -0.30943714 -3.82398262
| 58> H 9.44963845 -0.84438407 0.33039552
| 59> *
| 60> $new_job
| 61> #
| 62> !wB97X-D3 def2-TZVP def2/J RIJCOSX Grid5 FinalGrid6 TightSCF
| 63> %pal
| 64>  nprocs 24
| 65> end
| 66> %elprop
| 67>    dipole     true
| 68>    quadrupole true
| 69> end
| 70> %tddft
| 71>   Mode sTDDFT
| 72>   nroots 2
| 73>   Ethresh 10.0
| 74>   maxcore 5000
| 75> end
| 76> * xyz 0 1
| 77> C -5.01087083 0.12504497 2.87173788
| 78> C -4.09398855 0.18080779 1.82524373
| 79> C -4.56191034 0.11125846 0.49895117
| 80> C -5.96093195 -0.03732993 0.28289841
| 81> C -6.88745047 -0.08791706 1.33560868
| 82> C -6.39073841 -0.00079306 2.63338286
| 83> C -3.93852465 0.10876142 -0.81582455
| 84> C -4.99832087 -0.06859254 -1.75397976
| 85> N -6.20109214 -0.13395815 -1.07653373
| 86> C -4.78719800 -0.17557017 -3.13673557
| 87> C -3.47167708 -0.11625673 -3.59073217
| 88> C -2.40945703 0.06470670 -2.69530423
| 89> C -2.60897586 0.19989691 -1.30855682
| 90> H -1.39723904 0.12965122 -3.08519152
| 91> H -7.10833314 -0.26874617 -1.50571794
| 92> H -3.26287966 -0.20290579 -4.65308980
| 93> H -3.03500746 0.27133707 2.04359164
| 94> H -7.95126790 -0.19770373 1.14310503
| 95> H -7.07771970 -0.03736973 3.47455055
| 96> H -4.65380755 0.17959540 3.89633745
| 97> C 4.16483317 0.38110368 0.97625529
| 98> N 3.74502482 1.06514861 2.05287320
| 99> O 2.40106741 1.21080454 1.92699490
|100> C 1.97724414 0.63064654 0.79306232
|101> C 3.05649210 0.07770831 0.13250101
|102> C 0.55738911 0.67613963 0.47185838
|103> N -0.33593642 1.28114133 1.26870058
|104> O -1.54800707 1.13106179 0.67321649
|105> C -1.42889180 0.44371581 -0.47232412
|106> C -0.09618253 0.12818229 -0.66881102
|107> H 0.34304290 -0.42722748 -1.48454203
|108> H 3.05574361 -0.45869450 -0.80501395
|109> N 7.56972910 -1.68685760 -1.67651442
|110> C 7.43155437 -1.00564638 -0.52381998
|111> C 6.04493157 -0.68826623 -0.36164028
|112> N 5.38358052 -1.18722428 -1.42216806
|113> O 6.32347589 -1.78079430 -2.19420318
|114> C 5.57840294 0.04210883 0.78389327
|115> C 6.54978032 0.41040251 1.70352689
|116> C 7.92938679 0.09158493 1.53686350
|117> C 8.39599362 -0.60726356 0.44655686
|118> H 8.62649686 0.41754219 2.30469981
|119> H 6.25023575 0.96498767 2.58878030
|120> H -5.61773497 -0.30943714 -3.82398262
|121> H 9.44963845 -0.84438407 0.33039552
|122> *
|123>
|124>                          ****END OF INPUT****
 Total Charge           Charge          ....    0
 Multiplicity           Mult            ....    1
 Number of Electrons    NEL             ....  216
Dispersion correction           -0.019418568
FINAL SINGLE POINT ENERGY     -1421.746604730253

CARTESIAN COORDINATES (ANGSTROEM)
---------------------------------
  C     -5.010871    0.125045    2.871738
  C     -4.093989    0.180808    1.825244
  C     -4.561910    0.111258    0.498951
  C     -5.960932   -0.037330    0.282898
  C     -6.887450   -0.087917    1.335609
  C     -6.390738   -0.000793    2.633383
  C     -3.938525    0.108761   -0.815825
  C     -4.998321   -0.068593   -1.753980
  N     -6.201092   -0.133958   -1.076534
  C     -4.787198   -0.175570   -3.136736
  C     -3.471677   -0.116257   -3.590732
  C     -2.409457    0.064707   -2.695304
  C     -2.608976    0.199897   -1.308557
  H     -1.397239    0.129651   -3.085192
  H     -7.108333   -0.268746   -1.505718
  H     -3.262880   -0.202906   -4.653090
  H     -3.035007    0.271337    2.043592
  H     -7.951268   -0.197704    1.143105
  H     -7.077720   -0.037370    3.474551
  H     -4.653808    0.179595    3.896337
  C      4.164833    0.381104    0.976255
  N      3.745025    1.065149    2.052873
  O      2.401067    1.210805    1.926995
  C      1.977244    0.630647    0.793062
  C      3.056492    0.077708    0.132501
  C      0.557389    0.676140    0.471858
  N     -0.335936    1.281141    1.268701
  O     -1.548007    1.131062    0.673216
  C     -1.428892    0.443716   -0.472324
  C     -0.096183    0.128182   -0.668811
  H      0.343043   -0.427227   -1.484542
  H      3.055744   -0.458695   -0.805014
  N      7.569729   -1.686858   -1.676514
  C      7.431554   -1.005646   -0.523820
  C      6.044932   -0.688266   -0.361640
  N      5.383581   -1.187224   -1.422168
  O      6.323476   -1.780794   -2.194203
  C      5.578403    0.042109    0.783893
  C      6.549780    0.410403    1.703527
  C      7.929387    0.091585    1.536863
  C      8.395994   -0.607264    0.446557
  H      8.626497    0.417542    2.304700
  H      6.250236    0.964988    2.588780
  H     -5.617735   -0.309437   -3.823983
  H      9.449638   -0.844384    0.330396

 Multiplicity           Mult            ....    1
 Number of Electrons    NEL             ....  216
 Basis Dimension        Dim             .... 1070

ORBITAL ENERGIES
----------------

  NO   OCC          E(Eh)            E(eV)
   0   2.0000     -19.386408      -527.5310
   1   2.0000     -19.341982      -526.3221
   2   2.0000     -19.341647      -526.3130
   3   2.0000     -14.512048      -394.8929
   4   2.0000     -14.512018      -394.8921
   5   2.0000     -14.487171      -394.2160
   6   2.0000     -14.485741      -394.1771
   7   2.0000     -14.473744      -393.8506
   8   2.0000     -10.374889      -282.3151
   9   2.0000     -10.371681      -282.2278
  10   2.0000     -10.353707      -281.7387
  11   2.0000     -10.350763      -281.6586
  12   2.0000     -10.348275      -281.5909
  13   2.0000     -10.345921      -281.5268
  14   2.0000     -10.341234      -281.3993
  15   2.0000     -10.337235      -281.2905
  16   2.0000     -10.329952      -281.0923
  17   2.0000     -10.325728      -280.9773
  18   2.0000     -10.322758      -280.8965
  19   2.0000     -10.322310      -280.8843
  20   2.0000     -10.321578      -280.8644
  21   2.0000     -10.307152      -280.4719
  22   2.0000     -10.305159      -280.4176
  23   2.0000     -10.304221      -280.3921
  24   2.0000     -10.300478      -280.2902
  25   2.0000     -10.297891      -280.2198
  26   2.0000     -10.295719      -280.1608
  27   2.0000     -10.294027      -280.1147
  28   2.0000     -10.288655      -279.9685
  29   2.0000     -10.287335      -279.9326
  30   2.0000     -10.284656      -279.8597
  31   2.0000     -10.275907      -279.6217
  32   2.0000      -1.332233       -36.2519
  33   2.0000      -1.291874       -35.1537
  34   2.0000      -1.288238       -35.0547
  35   2.0000      -1.111179       -30.2367
  36   2.0000      -1.043575       -28.3971
  37   2.0000      -1.037338       -28.2274
  38   2.0000      -1.016626       -27.6638
  39   2.0000      -0.994785       -27.0695
  40   2.0000      -0.984490       -26.7893
  41   2.0000      -0.968215       -26.3465
  42   2.0000      -0.951809       -25.9000
  43   2.0000      -0.941976       -25.6325
  44   2.0000      -0.923350       -25.1256
  45   2.0000      -0.905851       -24.6495
  46   2.0000      -0.899483       -24.4762
  47   2.0000      -0.875773       -23.8310
  48   2.0000      -0.850249       -23.1364
  49   2.0000      -0.844606       -22.9829
  50   2.0000      -0.810841       -22.0641
  51   2.0000      -0.787420       -21.4268
  52   2.0000      -0.775934       -21.1142
  53   2.0000      -0.766686       -20.8626
  54   2.0000      -0.763149       -20.7663
  55   2.0000      -0.737413       -20.0660
  56   2.0000      -0.729187       -19.8422
  57   2.0000      -0.718766       -19.5586
  58   2.0000      -0.716331       -19.4924
  59   2.0000      -0.705186       -19.1891
  60   2.0000      -0.675684       -18.3863
  61   2.0000      -0.667174       -18.1547
  62   2.0000      -0.648479       -17.6460
  63   2.0000      -0.635211       -17.2850
  64   2.0000      -0.631706       -17.1896
  65   2.0000      -0.627970       -17.0879
  66   2.0000      -0.619408       -16.8550
  67   2.0000      -0.611780       -16.6474
  68   2.0000      -0.610876       -16.6228
  69   2.0000      -0.606405       -16.5011
  70   2.0000      -0.602061       -16.3829
  71   2.0000      -0.595519       -16.2049
  72   2.0000      -0.576655       -15.6916
  73   2.0000      -0.567869       -15.4525
  74   2.0000      -0.563336       -15.3292
  75   2.0000      -0.552877       -15.0445
  76   2.0000      -0.551487       -15.0067
  77   2.0000      -0.543146       -14.7797
  78   2.0000      -0.534491       -14.5442
  79   2.0000      -0.533512       -14.5176
  80   2.0000      -0.528004       -14.3677
  81   2.0000      -0.526617       -14.3300
  82   2.0000      -0.510937       -13.9033
  83   2.0000      -0.510391       -13.8884
  84   2.0000      -0.504476       -13.7275
  85   2.0000      -0.499535       -13.5930
  86   2.0000      -0.493734       -13.4352
  87   2.0000      -0.476701       -12.9717
  88   2.0000      -0.472287       -12.8516
  89   2.0000      -0.471362       -12.8264
  90   2.0000      -0.456637       -12.4257
  91   2.0000      -0.449319       -12.2266
  92   2.0000      -0.446984       -12.1630
  93   2.0000      -0.444641       -12.0993
  94   2.0000      -0.440990       -11.9999
  95   2.0000      -0.431746       -11.7484
  96   2.0000      -0.428323       -11.6553
  97   2.0000      -0.420631       -11.4459
  98   2.0000      -0.409600       -11.1458
  99   2.0000      -0.409196       -11.1348
 100   2.0000      -0.395514       -10.7625
 101   2.0000      -0.390938       -10.6380
 102   2.0000      -0.375181       -10.2092
 103   2.0000      -0.350319        -9.5327
 104   2.0000      -0.338022        -9.1981
 105   2.0000      -0.327182        -8.9031
 106   2.0000      -0.304406        -8.2833
 107   2.0000      -0.293343        -7.9823
 108   0.0000      -0.041925        -1.1408
 109   0.0000      -0.003510        -0.0955
 110   0.0000       0.015294         0.4162
 111   0.0000       0.046471         1.2645
 112   0.0000       0.051525         1.4021

MULLIKEN ATOMIC CHARGES
-----------------------
   0 C :   -0.175128
   1 C :   -0.124350
   2 C :   -0.043587
   3 C :    0.166769
   4 C :   -0.236661
   5 C :   -0.078278
   6 C :   -0.036209
   7 C :    0.180226
   8 N :   -0.302048
   9 C :   -0.222617
  10 C :   -0.092214
  11 C :   -0.276170
  12 C :    0.072996
  13 H :    0.123993
  14 H :    0.237478
  15 H :    0.126267
  16 H :    0.152183
  17 H :    0.115715
  18 H :    0.124153
  19 H :    0.122467
  20 C :    0.278699
  21 N :   -0.150468
  22 O :   -0.097625
  23 C :    0.224804
  24 C :   -0.294033
  25 C :    0.138764
  26 N :   -0.161499
  27 O :   -0.127565
  28 C :    0.292766
  29 C :   -0.273676
  30 H :    0.169137
  31 H :    0.189924
  32 N :   -0.072401
  33 C :    0.030510
  34 C :    0.079430
  35 N :   -0.106807
  36 O :   -0.010831
  37 C :   -0.086741
  38 C :   -0.191609
  39 C :   -0.074842
  40 C :   -0.175817
  41 H :    0.143349
  42 H :    0.170742
  43 H :    0.120418
  44 H :    0.150383
Sum of atomic charges:   -0.0000000

LOEWDIN ATOMIC CHARGES
----------------------
   0 C :   -0.155620
   1 C :   -0.095918
   2 C :   -0.080791
   3 C :   -0.144252
   4 C :   -0.133758
   5 C :   -0.138263
   6 C :   -0.034115
   7 C :   -0.142961
   8 N :    0.202111
   9 C :   -0.120022
  10 C :   -0.140349
  11 C :   -0.107710
  12 C :   -0.082432
  13 H :    0.150178
  14 H :    0.194014
  15 H :    0.147774
  16 H :    0.152351
  17 H :    0.143218
  18 H :    0.145221
  19 H :    0.145141
  20 C :   -0.210347
  21 N :    0.045508
  22 O :    0.319838
  23 C :   -0.215333
  24 C :   -0.111876
  25 C :   -0.228402
  26 N :    0.047100
  27 O :    0.311921
  28 C :   -0.197397
  29 C :   -0.118935
  30 H :    0.150208
  31 H :    0.153544
  32 N :    0.044196
  33 C :   -0.228820
  34 C :   -0.185996
  35 N :    0.031273
  36 O :    0.221243
  37 C :   -0.080463
  38 C :   -0.059480
  39 C :   -0.117988
  40 C :   -0.091476
  41 H :    0.153512
  42 H :    0.162943
  43 H :    0.145678
  44 H :    0.155735

  Mayer bond orders larger than 0.1
B(  0-C ,  1-C ) :   1.5335 B(  0-C ,  5-C ) :   1.3537 B(  0-C , 19-H ) :   0.9850
B(  1-C ,  2-C ) :   1.2725 B(  1-C , 16-H ) :   0.9338 B(  2-C ,  3-C ) :   1.3681
B(  2-C ,  6-C ) :   1.0842 B(  3-C ,  4-C ) :   1.3091 B(  3-C ,  8-N ) :   1.1174
B(  4-C ,  5-C ) :   1.4858 B(  4-C , 17-H ) :   0.9747 B(  5-C , 18-H ) :   0.9795
B(  6-C ,  7-C ) :   1.3319 B(  6-C , 12-C ) :   1.2532 B(  7-C ,  8-N ) :   1.1544
B(  7-C ,  9-C ) :   1.2940 B(  8-N , 14-H ) :   0.9120 B(  9-C , 10-C ) :   1.4630
B(  9-C , 43-H ) :   0.9711 B( 10-C , 11-C ) :   1.4100 B( 10-C , 15-H ) :   0.9835
B( 11-C , 12-C ) :   1.4334 B( 11-C , 13-H ) :   0.9689 B( 12-C , 28-C ) :   0.9602
B( 20-C , 21-N ) :   1.6361 B( 20-C , 24-C ) :   1.2821 B( 20-C , 37-C ) :   0.9521
B( 21-N , 22-O ) :   1.0080 B( 21-N , 23-C ) :   0.1151 B( 22-O , 23-C ) :   1.2230
B( 23-C , 24-C ) :   1.5820 B( 23-C , 25-C ) :   0.9877 B( 24-C , 31-H ) :   0.9023
B( 25-C , 26-N ) :   1.6514 B( 25-C , 29-C ) :   1.2909 B( 26-N , 27-O ) :   0.9867
B( 26-N , 28-C ) :   0.1267 B( 27-O , 28-C ) :   1.1692 B( 28-C , 29-C ) :   1.6034
B( 29-C , 30-H ) :   0.9231 B( 32-N , 33-C ) :   1.6110 B( 32-N , 35-N ) :   0.1970
B( 32-N , 36-O ) :   1.0676 B( 33-C , 34-C ) :   1.1805 B( 33-C , 40-C ) :   1.1445
B( 34-C , 35-N ) :   1.5296 B( 34-C , 37-C ) :   1.1021 B( 35-N , 36-O ) :   1.0525
B( 37-C , 38-C ) :   1.6516 B( 38-C , 39-C ) :   1.2053 B( 38-C , 42-H ) :   0.9357
B( 39-C , 40-C ) :   1.6154 B( 39-C , 41-H ) :   0.9776 B( 40-C , 44-H ) :   0.9716

Dispersion correction           -0.019418568
FINAL SINGLE POINT ENERGY     -1421.746604707985

DIPOLE MOMENT
-------------
                                X             Y             Z
Electronic contribution:     16.10041       0.55369      -1.00615
Nuclear contribution   :    -16.86609      -1.00936       0.20736
                        -----------------------------------------
Total Dipole Moment    :     -0.76568      -0.45567      -0.79880
                        -----------------------------------------
Magnitude (a.u.)       :      1.19665
Magnitude (Debye)      :      3.04164

                             ****ORCA TERMINATED NORMALLY****
TOTAL RUN TIME: 0 days 0 hours 8 minutes 50 seconds 930 msec
