                         Program Version 4.0.0 -  RELEASE  -
|  1> #
|  2> !wB97X-D3 def2-TZVP def2/J RIJCOSX Grid5 FinalGrid6 TightSCF
|  3> %pal
|  4>  nprocs 24
|  5> end
|  6> %tddft
|  7>   Mode sTDDFT
|  8>   nroots 2
|  9>   Ethresh 10.0
| 10>   maxcore 5000
| 11>   triplets true
| 12> end
| 13> * xyz 0 1
| 14> C 7.99222411 1.49736509 1.82479769
| 15> C 7.37330526 0.55765789 1.00316640
| 16> C 8.16813097 -0.27719565 0.19678620
| 17> C 9.58391545 -0.15997904 0.28796978
| 18> C 10.21017786 0.78856044 1.11070376
| 19> C 9.39181139 1.62061706 1.87150566
| 20> C 7.90162861 -1.36324119 -0.73290066
| 21> C 9.17447862 -1.87193270 -1.12086480
| 22> N 10.16850663 -1.12039342 -0.51920460
| 23> C 9.32648297 -2.98265275 -1.96503765
| 24> C 8.16357134 -3.60255213 -2.41784864
| 25> C 6.89801825 -3.10977680 -2.06992526
| 26> C 6.73166816 -1.97773165 -1.25002888
| 27> H 6.01442550 -3.59816638 -2.47236829
| 28> H 11.16355703 -1.28081057 -0.61627402
| 29> H 8.23490718 -4.47230246 -3.06525123
| 30> H 6.29075781 0.47062665 1.00684315
| 31> H 11.29326928 0.86351259 1.15972040
| 32> H 9.84135465 2.36626625 2.52186294
| 33> H 7.38251305 2.14581046 2.44803206
| 34> N 0.79983795 0.23641344 -0.61981863
| 35> C 2.09257543 0.67752881 -0.86830932
| 36> C 2.21333693 2.03878415 -1.08926429
| 37> S 0.65239578 2.80960217 -0.98766009
| 38> C -0.09120228 1.21012492 -0.63842015
| 39> C 3.18344570 -0.28665247 -0.89110957
| 40> S 4.87324071 0.19521098 -1.17586367
| 41> C 5.36231487 -1.49216951 -1.01594809
| 42> C 4.23724822 -2.26315185 -0.79418277
| 43> N 3.03848296 -1.59115790 -0.70901979
| 44> H 3.12282455 2.58570071 -1.30415401
| 45> H 4.25758698 -3.34260089 -0.65500742
| 46> C -4.16128150 -1.34094749 0.86159702
| 47> C -5.54125503 -1.37481643 1.05978563
| 48> C -6.34578489 -0.26800534 0.73457680
| 49> C -5.77865666 0.89096372 0.20711001
| 50> C -4.36451260 0.95849504 -0.01225639
| 51> C -3.54076331 -0.16641913 0.31310224
| 52> C -3.74818287 2.14069895 -0.54919123
| 53> C -2.37601035 2.18065146 -0.73814652
| 54> C -1.53192611 1.07556735 -0.42424801
| 55> C -2.11821500 -0.10075771 0.09707023
| 56> N -1.31147113 -1.14061606 0.58203883
| 57> C -0.68484668 -2.00776261 -0.14062666
| 58> C 0.25836219 -2.97931767 0.51391974
| 59> N -4.52789901 3.30475716 -0.74804528
| 60> C -4.58843702 3.93441951 -1.87487034
| 61> C -5.39526392 5.20688788 -1.95930394
| 62> N -6.60720626 1.94594307 -0.24138284
| 63> C -7.42817764 2.58204469 0.52720888
| 64> C -8.31764901 3.64451447 -0.07037260
| 65> N -3.40799523 -2.51878713 1.07093049
| 66> C -3.29258162 -3.09408117 2.22156313
| 67> C -2.53588708 -4.39525768 2.32135087
| 68> C -3.83829440 -2.53388534 3.52059896
| 69> C -0.83154882 -2.11808431 -1.64257486
| 70> C -3.93310853 3.47128785 -3.16202390
| 71> C -7.54624473 2.37467346 2.02511939
| 72> H -6.00069839 -2.27898557 1.44887846
| 73> H -1.92538932 3.09417022 -1.11934820
| 74> H 0.13532088 -1.97560934 -2.12351726
| 75> H -1.19273185 -3.10904309 -1.91738692
| 76> H -1.52580476 -1.37411889 -2.02440582
| 77> H 0.17738882 -2.94001537 1.59658032
| 78> H 0.06877133 -3.99886245 0.17971209
| 79> H 1.28460727 -2.72392285 0.23065448
| 80> H -4.13332301 -1.49422492 3.40770665
| 81> H -4.70977881 -3.10303765 3.84584104
| 82> H -3.09227827 -2.60724014 4.31029693
| 83> H -3.15451364 -5.16877139 2.77656189
| 84> H -1.65538820 -4.27788698 2.95362150
| 85> H -2.21306304 -4.73728521 1.34231549
| 86> H -8.08008342 4.62247934 0.34981791
| 87> H -9.36544542 3.44659563 0.15599674
| 88> H -8.19657893 3.69555229 -1.14856771
| 89> H -7.61438484 3.33263903 2.53820279
| 90> H -6.69453914 1.82387546 2.41522520
| 91> H -8.45153734 1.81552226 2.26428324
| 92> H -3.64705768 2.42439130 -3.10498649
| 93> H -4.60863106 3.60944909 -4.00466952
| 94> H -3.03636069 4.05687539 -3.36770703
| 95> H -6.22836708 5.08637679 -2.65268970
| 96> H -5.79435285 5.48276381 -0.98744791
| 97> H -4.78545553 6.02906414 -2.33408689
| 98> H 10.31014162 -3.34968761 -2.24375280
| 99> H -7.42192133 -0.32494404 0.87191573
|100> *
|101> $new_job
|102> #
|103> !wB97X-D3 def2-TZVP def2/J RIJCOSX Grid5 FinalGrid6 TightSCF
|104> %pal
|105>  nprocs 24
|106> end
|107> %elprop
|108>    dipole     true
|109>    quadrupole true
|110> end
|111> %tddft
|112>   Mode sTDDFT
|113>   nroots 2
|114>   Ethresh 10.0
|115>   maxcore 5000
|116> end
|117> * xyz 0 1
|118> C 7.99222411 1.49736509 1.82479769
|119> C 7.37330526 0.55765789 1.00316640
|120> C 8.16813097 -0.27719565 0.19678620
|121> C 9.58391545 -0.15997904 0.28796978
|122> C 10.21017786 0.78856044 1.11070376
|123> C 9.39181139 1.62061706 1.87150566
|124> C 7.90162861 -1.36324119 -0.73290066
|125> C 9.17447862 -1.87193270 -1.12086480
|126> N 10.16850663 -1.12039342 -0.51920460
|127> C 9.32648297 -2.98265275 -1.96503765
|128> C 8.16357134 -3.60255213 -2.41784864
|129> C 6.89801825 -3.10977680 -2.06992526
|130> C 6.73166816 -1.97773165 -1.25002888
|131> H 6.01442550 -3.59816638 -2.47236829
|132> H 11.16355703 -1.28081057 -0.61627402
|133> H 8.23490718 -4.47230246 -3.06525123
|134> H 6.29075781 0.47062665 1.00684315
|135> H 11.29326928 0.86351259 1.15972040
|136> H 9.84135465 2.36626625 2.52186294
|137> H 7.38251305 2.14581046 2.44803206
|138> N 0.79983795 0.23641344 -0.61981863
|139> C 2.09257543 0.67752881 -0.86830932
|140> C 2.21333693 2.03878415 -1.08926429
|141> S 0.65239578 2.80960217 -0.98766009
|142> C -0.09120228 1.21012492 -0.63842015
|143> C 3.18344570 -0.28665247 -0.89110957
|144> S 4.87324071 0.19521098 -1.17586367
|145> C 5.36231487 -1.49216951 -1.01594809
|146> C 4.23724822 -2.26315185 -0.79418277
|147> N 3.03848296 -1.59115790 -0.70901979
|148> H 3.12282455 2.58570071 -1.30415401
|149> H 4.25758698 -3.34260089 -0.65500742
|150> C -4.16128150 -1.34094749 0.86159702
|151> C -5.54125503 -1.37481643 1.05978563
|152> C -6.34578489 -0.26800534 0.73457680
|153> C -5.77865666 0.89096372 0.20711001
|154> C -4.36451260 0.95849504 -0.01225639
|155> C -3.54076331 -0.16641913 0.31310224
|156> C -3.74818287 2.14069895 -0.54919123
|157> C -2.37601035 2.18065146 -0.73814652
|158> C -1.53192611 1.07556735 -0.42424801
|159> C -2.11821500 -0.10075771 0.09707023
|160> N -1.31147113 -1.14061606 0.58203883
|161> C -0.68484668 -2.00776261 -0.14062666
|162> C 0.25836219 -2.97931767 0.51391974
|163> N -4.52789901 3.30475716 -0.74804528
|164> C -4.58843702 3.93441951 -1.87487034
|165> C -5.39526392 5.20688788 -1.95930394
|166> N -6.60720626 1.94594307 -0.24138284
|167> C -7.42817764 2.58204469 0.52720888
|168> C -8.31764901 3.64451447 -0.07037260
|169> N -3.40799523 -2.51878713 1.07093049
|170> C -3.29258162 -3.09408117 2.22156313
|171> C -2.53588708 -4.39525768 2.32135087
|172> C -3.83829440 -2.53388534 3.52059896
|173> C -0.83154882 -2.11808431 -1.64257486
|174> C -3.93310853 3.47128785 -3.16202390
|175> C -7.54624473 2.37467346 2.02511939
|176> H -6.00069839 -2.27898557 1.44887846
|177> H -1.92538932 3.09417022 -1.11934820
|178> H 0.13532088 -1.97560934 -2.12351726
|179> H -1.19273185 -3.10904309 -1.91738692
|180> H -1.52580476 -1.37411889 -2.02440582
|181> H 0.17738882 -2.94001537 1.59658032
|182> H 0.06877133 -3.99886245 0.17971209
|183> H 1.28460727 -2.72392285 0.23065448
|184> H -4.13332301 -1.49422492 3.40770665
|185> H -4.70977881 -3.10303765 3.84584104
|186> H -3.09227827 -2.60724014 4.31029693
|187> H -3.15451364 -5.16877139 2.77656189
|188> H -1.65538820 -4.27788698 2.95362150
|189> H -2.21306304 -4.73728521 1.34231549
|190> H -8.08008342 4.62247934 0.34981791
|191> H -9.36544542 3.44659563 0.15599674
|192> H -8.19657893 3.69555229 -1.14856771
|193> H -7.61438484 3.33263903 2.53820279
|194> H -6.69453914 1.82387546 2.41522520
|195> H -8.45153734 1.81552226 2.26428324
|196> H -3.64705768 2.42439130 -3.10498649
|197> H -4.60863106 3.60944909 -4.00466952
|198> H -3.03636069 4.05687539 -3.36770703
|199> H -6.22836708 5.08637679 -2.65268970
|200> H -5.79435285 5.48276381 -0.98744791
|201> H -4.78545553 6.02906414 -2.33408689
|202> H 10.31014162 -3.34968761 -2.24375280
|203> H -7.42192133 -0.32494404 0.87191573
|204> *
|205>
|206>                          ****END OF INPUT****
 Total Charge           Charge          ....    0
 Multiplicity           Mult            ....    1
 Number of Electrons    NEL             ....  358
Dispersion correction           -0.051254136
FINAL SINGLE POINT ENERGY     -2726.329954737547

CARTESIAN COORDINATES (ANGSTROEM)
---------------------------------
  C      7.992224    1.497365    1.824798
  C      7.373305    0.557658    1.003166
  C      8.168131   -0.277196    0.196786
  C      9.583915   -0.159979    0.287970
  C     10.210178    0.788560    1.110704
  C      9.391811    1.620617    1.871506
  C      7.901629   -1.363241   -0.732901
  C      9.174479   -1.871933   -1.120865
  N     10.168507   -1.120393   -0.519205
  C      9.326483   -2.982653   -1.965038
  C      8.163571   -3.602552   -2.417849
  C      6.898018   -3.109777   -2.069925
  C      6.731668   -1.977732   -1.250029
  H      6.014425   -3.598166   -2.472368
  H     11.163557   -1.280811   -0.616274
  H      8.234907   -4.472302   -3.065251
  H      6.290758    0.470627    1.006843
  H     11.293269    0.863513    1.159720
  H      9.841355    2.366266    2.521863
  H      7.382513    2.145810    2.448032
  N      0.799838    0.236413   -0.619819
  C      2.092575    0.677529   -0.868309
  C      2.213337    2.038784   -1.089264
  S      0.652396    2.809602   -0.987660
  C     -0.091202    1.210125   -0.638420
  C      3.183446   -0.286652   -0.891110
  S      4.873241    0.195211   -1.175864
  C      5.362315   -1.492170   -1.015948
  C      4.237248   -2.263152   -0.794183
  N      3.038483   -1.591158   -0.709020
  H      3.122825    2.585701   -1.304154
  H      4.257587   -3.342601   -0.655007
  C     -4.161282   -1.340947    0.861597
  C     -5.541255   -1.374816    1.059786
  C     -6.345785   -0.268005    0.734577
  C     -5.778657    0.890964    0.207110
  C     -4.364513    0.958495   -0.012256
  C     -3.540763   -0.166419    0.313102
  C     -3.748183    2.140699   -0.549191
  C     -2.376010    2.180651   -0.738147
  C     -1.531926    1.075567   -0.424248
  C     -2.118215   -0.100758    0.097070
  N     -1.311471   -1.140616    0.582039
  C     -0.684847   -2.007763   -0.140627
  C      0.258362   -2.979318    0.513920
  N     -4.527899    3.304757   -0.748045
  C     -4.588437    3.934420   -1.874870
  C     -5.395264    5.206888   -1.959304
  N     -6.607206    1.945943   -0.241383
  C     -7.428178    2.582045    0.527209
  C     -8.317649    3.644514   -0.070373
  N     -3.407995   -2.518787    1.070930
  C     -3.292582   -3.094081    2.221563
  C     -2.535887   -4.395258    2.321351
  C     -3.838294   -2.533885    3.520599
  C     -0.831549   -2.118084   -1.642575
  C     -3.933109    3.471288   -3.162024
  C     -7.546245    2.374673    2.025119
  H     -6.000698   -2.278986    1.448878
  H     -1.925389    3.094170   -1.119348
  H      0.135321   -1.975609   -2.123517
  H     -1.192732   -3.109043   -1.917387
  H     -1.525805   -1.374119   -2.024406
  H      0.177389   -2.940015    1.596580
  H      0.068771   -3.998862    0.179712
  H      1.284607   -2.723923    0.230654
  H     -4.133323   -1.494225    3.407707
  H     -4.709779   -3.103038    3.845841
  H     -3.092278   -2.607240    4.310297
  H     -3.154514   -5.168771    2.776562
  H     -1.655388   -4.277887    2.953622
  H     -2.213063   -4.737285    1.342315
  H     -8.080083    4.622479    0.349818
  H     -9.365445    3.446596    0.155997
  H     -8.196579    3.695552   -1.148568
  H     -7.614385    3.332639    2.538203
  H     -6.694539    1.823875    2.415225
  H     -8.451537    1.815522    2.264283
  H     -3.647058    2.424391   -3.104986
  H     -4.608631    3.609449   -4.004670
  H     -3.036361    4.056875   -3.367707
  H     -6.228367    5.086377   -2.652690
  H     -5.794353    5.482764   -0.987448
  H     -4.785456    6.029064   -2.334087
  H     10.310142   -3.349688   -2.243753
  H     -7.421921   -0.324944    0.871916

 Multiplicity           Mult            ....    1
 Number of Electrons    NEL             ....  358
 Basis Dimension        Dim             .... 1753

ORBITAL ENERGIES
----------------

  NO   OCC          E(Eh)            E(eV)
   0   2.0000     -88.988151     -2421.4907
   1   2.0000     -88.984866     -2421.4013
   2   2.0000     -14.470044      -393.7499
   3   2.0000     -14.428414      -392.6171
   4   2.0000     -14.419447      -392.3731
   5   2.0000     -14.404598      -391.9690
   6   2.0000     -14.404437      -391.9647
   7   2.0000     -14.404430      -391.9645
   8   2.0000     -14.391469      -391.6118
   9   2.0000     -10.360727      -281.9297
  10   2.0000     -10.357745      -281.8486
  11   2.0000     -10.331027      -281.1215
  12   2.0000     -10.330999      -281.1208
  13   2.0000     -10.327875      -281.0358
  14   2.0000     -10.327647      -281.0296
  15   2.0000     -10.326676      -281.0031
  16   2.0000     -10.326532      -280.9992
  17   2.0000     -10.326222      -280.9908
  18   2.0000     -10.320458      -280.8339
  19   2.0000     -10.320100      -280.8242
  20   2.0000     -10.319469      -280.8070
  21   2.0000     -10.314927      -280.6834
  22   2.0000     -10.313279      -280.6386
  23   2.0000     -10.309266      -280.5294
  24   2.0000     -10.305975      -280.4398
  25   2.0000     -10.305956      -280.4393
  26   2.0000     -10.297508      -280.2094
  27   2.0000     -10.292079      -280.0617
  28   2.0000     -10.291873      -280.0561
  29   2.0000     -10.290898      -280.0296
  30   2.0000     -10.290568      -280.0206
  31   2.0000     -10.289912      -280.0027
  32   2.0000     -10.289413      -279.9891
  33   2.0000     -10.287843      -279.9464
  34   2.0000     -10.286229      -279.9025
  35   2.0000     -10.285484      -279.8822
  36   2.0000     -10.284428      -279.8535
  37   2.0000     -10.276507      -279.6380
  38   2.0000     -10.276490      -279.6375
  39   2.0000     -10.273424      -279.5541
  40   2.0000     -10.270699      -279.4799
  41   2.0000     -10.269808      -279.4557
  42   2.0000     -10.268898      -279.4309
  43   2.0000     -10.268565      -279.4219
  44   2.0000     -10.268520      -279.4206
  45   2.0000     -10.268287      -279.4143
  46   2.0000     -10.266664      -279.3701
  47   2.0000     -10.252494      -278.9845
  48   2.0000     -10.245286      -278.7884
  49   2.0000      -8.084884      -220.0009
  50   2.0000      -8.081284      -219.9029
  51   2.0000      -6.037951      -164.3010
  52   2.0000      -6.034438      -164.2054
  53   2.0000      -6.034069      -164.1954
  54   2.0000      -6.032010      -164.1393
  55   2.0000      -6.030426      -164.0962
  56   2.0000      -6.028437      -164.0421
  57   2.0000      -1.106783       -30.1171
  58   2.0000      -1.085105       -29.5272
  59   2.0000      -1.066498       -29.0209
  60   2.0000      -1.049023       -28.5454
  61   2.0000      -1.040501       -28.3135
  62   2.0000      -1.027536       -27.9607
  63   2.0000      -1.021496       -27.7963
  64   2.0000      -0.979186       -26.6450
  65   2.0000      -0.967188       -26.3185
  66   2.0000      -0.965930       -26.2843
  67   2.0000      -0.933949       -25.4140
  68   2.0000      -0.922157       -25.0932
  69   2.0000      -0.909118       -24.7384
  70   2.0000      -0.902347       -24.5541
  71   2.0000      -0.899195       -24.4683
  72   2.0000      -0.897792       -24.4301
  73   2.0000      -0.879835       -23.9415
  74   2.0000      -0.873241       -23.7621
  75   2.0000      -0.864191       -23.5158
  76   2.0000      -0.861154       -23.4332
  77   2.0000      -0.853581       -23.2271
  78   2.0000      -0.845683       -23.0122
  79   2.0000      -0.840304       -22.8658
  80   2.0000      -0.823841       -22.4179
  81   2.0000      -0.818496       -22.2724
  82   2.0000      -0.812786       -22.1170
  83   2.0000      -0.812385       -22.1061
  84   2.0000      -0.810601       -22.0576
  85   2.0000      -0.797335       -21.6966
  86   2.0000      -0.789343       -21.4791
  87   2.0000      -0.767482       -20.8843
  88   2.0000      -0.748655       -20.3719
  89   2.0000      -0.736544       -20.0424
  90   2.0000      -0.726272       -19.7629
  91   2.0000      -0.722782       -19.6679
  92   2.0000      -0.715849       -19.4792
  93   2.0000      -0.714482       -19.4420
  94   2.0000      -0.695188       -18.9170
  95   2.0000      -0.688624       -18.7384
  96   2.0000      -0.670688       -18.2503
  97   2.0000      -0.657612       -17.8945
  98   2.0000      -0.647408       -17.6169
  99   2.0000      -0.643980       -17.5236
 100   2.0000      -0.642585       -17.4856
 101   2.0000      -0.634700       -17.2711
 102   2.0000      -0.624445       -16.9920
 103   2.0000      -0.614054       -16.7093
 104   2.0000      -0.608717       -16.5640
 105   2.0000      -0.598696       -16.2914
 106   2.0000      -0.586948       -15.9717
 107   2.0000      -0.585060       -15.9203
 108   2.0000      -0.578026       -15.7289
 109   2.0000      -0.569392       -15.4940
 110   2.0000      -0.566313       -15.4102
 111   2.0000      -0.564352       -15.3568
 112   2.0000      -0.558969       -15.2103
 113   2.0000      -0.557482       -15.1699
 114   2.0000      -0.553893       -15.0722
 115   2.0000      -0.549042       -14.9402
 116   2.0000      -0.547638       -14.9020
 117   2.0000      -0.545015       -14.8306
 118   2.0000      -0.542863       -14.7721
 119   2.0000      -0.541355       -14.7310
 120   2.0000      -0.540222       -14.7002
 121   2.0000      -0.538779       -14.6609
 122   2.0000      -0.534760       -14.5516
 123   2.0000      -0.533992       -14.5307
 124   2.0000      -0.532221       -14.4825
 125   2.0000      -0.527703       -14.3595
 126   2.0000      -0.526452       -14.3255
 127   2.0000      -0.523653       -14.2493
 128   2.0000      -0.520497       -14.1634
 129   2.0000      -0.518335       -14.1046
 130   2.0000      -0.509856       -13.8739
 131   2.0000      -0.503959       -13.7134
 132   2.0000      -0.502674       -13.6785
 133   2.0000      -0.500799       -13.6274
 134   2.0000      -0.495598       -13.4859
 135   2.0000      -0.489870       -13.3300
 136   2.0000      -0.488509       -13.2930
 137   2.0000      -0.487780       -13.2732
 138   2.0000      -0.483609       -13.1597
 139   2.0000      -0.482986       -13.1427
 140   2.0000      -0.476741       -12.9728
 141   2.0000      -0.474883       -12.9222
 142   2.0000      -0.471665       -12.8347
 143   2.0000      -0.468290       -12.7428
 144   2.0000      -0.466107       -12.6834
 145   2.0000      -0.465665       -12.6714
 146   2.0000      -0.463022       -12.5995
 147   2.0000      -0.460565       -12.5326
 148   2.0000      -0.456751       -12.4288
 149   2.0000      -0.455463       -12.3938
 150   2.0000      -0.454026       -12.3547
 151   2.0000      -0.452434       -12.3113
 152   2.0000      -0.444285       -12.0896
 153   2.0000      -0.443088       -12.0570
 154   2.0000      -0.440758       -11.9936
 155   2.0000      -0.440379       -11.9833
 156   2.0000      -0.434764       -11.8305
 157   2.0000      -0.427798       -11.6410
 158   2.0000      -0.411971       -11.2103
 159   2.0000      -0.406261       -11.0549
 160   2.0000      -0.394409       -10.7324
 161   2.0000      -0.389292       -10.5932
 162   2.0000      -0.379602       -10.3295
 163   2.0000      -0.377999       -10.2859
 164   2.0000      -0.372178       -10.1275
 165   2.0000      -0.370367       -10.0782
 166   2.0000      -0.368838       -10.0366
 167   2.0000      -0.365040        -9.9332
 168   2.0000      -0.355958        -9.6861
 169   2.0000      -0.348247        -9.4763
 170   2.0000      -0.336346        -9.1524
 171   2.0000      -0.326572        -8.8865
 172   2.0000      -0.321713        -8.7543
 173   2.0000      -0.315778        -8.5927
 174   2.0000      -0.303499        -8.2586
 175   2.0000      -0.297586        -8.0977
 176   2.0000      -0.288331        -7.8459
 177   2.0000      -0.280390        -7.6298
 178   2.0000      -0.240585        -6.5466
 179   0.0000      -0.005090        -0.1385
 180   0.0000       0.011126         0.3027
 181   0.0000       0.029296         0.7972
 182   0.0000       0.038775         1.0551
 183   0.0000       0.057692         1.5699

MULLIKEN ATOMIC CHARGES
-----------------------
   0 C :   -0.179137
   1 C :   -0.127236
   2 C :   -0.037212
   3 C :    0.168339
   4 C :   -0.231839
   5 C :   -0.079652
   6 C :   -0.041752
   7 C :    0.187575
   8 N :   -0.302036
   9 C :   -0.246101
  10 C :   -0.072855
  11 C :   -0.296126
  12 C :    0.202153
  13 H :    0.138493
  14 H :    0.236312
  15 H :    0.124132
  16 H :    0.149717
  17 H :    0.114725
  18 H :    0.123418
  19 H :    0.120459
  20 N :   -0.301163
  21 C :    0.077369
  22 C :   -0.231713
  23 S :    0.044153
  24 C :    0.260079
  25 C :    0.157844
  26 S :    0.001878
  27 C :    0.010218
  28 C :   -0.106677
  29 N :   -0.307227
  30 H :    0.167820
  31 H :    0.157449
  32 C :    0.029035
  33 C :   -0.189377
  34 C :   -0.209964
  35 C :    0.050704
  36 C :    0.141215
  37 C :    0.217778
  38 C :    0.040806
  39 C :   -0.390546
  40 C :    0.165408
  41 C :   -0.192101
  42 N :   -0.264908
  43 C :    0.296729
  44 C :   -0.366456
  45 N :   -0.271464
  46 C :    0.170815
  47 C :   -0.366509
  48 N :   -0.259856
  49 C :    0.171065
  50 C :   -0.366630
  51 N :   -0.270010
  52 C :    0.165468
  53 C :   -0.358900
  54 C :   -0.374089
  55 C :   -0.377702
  56 C :   -0.385813
  57 C :   -0.386534
  58 H :    0.118598
  59 H :    0.124057
  60 H :    0.148380
  61 H :    0.126593
  62 H :    0.138172
  63 H :    0.111605
  64 H :    0.108594
  65 H :    0.160313
  66 H :    0.156631
  67 H :    0.130993
  68 H :    0.129262
  69 H :    0.131416
  70 H :    0.129027
  71 H :    0.130221
  72 H :    0.126690
  73 H :    0.129757
  74 H :    0.131642
  75 H :    0.127961
  76 H :    0.158807
  77 H :    0.133075
  78 H :    0.161066
  79 H :    0.127538
  80 H :    0.133761
  81 H :    0.126981
  82 H :    0.130217
  83 H :    0.129896
  84 H :    0.118214
  85 H :    0.120961
Sum of atomic charges:   -0.0000000

LOEWDIN ATOMIC CHARGES
----------------------
   0 C :   -0.158689
   1 C :   -0.112572
   2 C :   -0.084494
   3 C :   -0.145027
   4 C :   -0.133004
   5 C :   -0.141341
   6 C :   -0.047333
   7 C :   -0.143739
   8 N :    0.200732
   9 C :   -0.128389
  10 C :   -0.140877
  11 C :   -0.115544
  12 C :   -0.108954
  13 H :    0.150668
  14 H :    0.193178
  15 H :    0.146722
  16 H :    0.142303
  17 H :    0.143119
  18 H :    0.144834
  19 H :    0.144193
  20 N :    0.170268
  21 C :   -0.286178
  22 C :   -0.368634
  23 S :    0.681269
  24 C :   -0.338176
  25 C :   -0.379478
  26 S :    0.737285
  27 C :   -0.319727
  28 C :   -0.227489
  29 N :    0.114896
  30 H :    0.131373
  31 H :    0.143830
  32 C :   -0.157466
  33 C :   -0.127748
  34 C :   -0.121756
  35 C :   -0.165337
  36 C :   -0.031031
  37 C :   -0.033256
  38 C :   -0.168021
  39 C :   -0.099841
  40 C :   -0.141755
  41 C :   -0.109341
  42 N :    0.184879
  43 C :   -0.244884
  44 C :   -0.263607
  45 N :    0.178253
  46 C :   -0.260907
  47 C :   -0.264617
  48 N :    0.178401
  49 C :   -0.261267
  50 C :   -0.264794
  51 N :    0.181969
  52 C :   -0.259318
  53 C :   -0.263216
  54 C :   -0.265986
  55 C :   -0.259997
  56 C :   -0.268514
  57 C :   -0.268229
  58 H :    0.148467
  59 H :    0.146691
  60 H :    0.136063
  61 H :    0.129230
  62 H :    0.130949
  63 H :    0.123855
  64 H :    0.123235
  65 H :    0.139824
  66 H :    0.134579
  67 H :    0.131304
  68 H :    0.129312
  69 H :    0.128349
  70 H :    0.130422
  71 H :    0.128111
  72 H :    0.129045
  73 H :    0.128397
  74 H :    0.127597
  75 H :    0.128297
  76 H :    0.134717
  77 H :    0.131229
  78 H :    0.135346
  79 H :    0.127885
  80 H :    0.131836
  81 H :    0.129164
  82 H :    0.127141
  83 H :    0.128625
  84 H :    0.144040
  85 H :    0.148650

  Mayer bond orders larger than 0.1
B(  0-C ,  1-C ) :   1.5261 B(  0-C ,  5-C ) :   1.3625 B(  0-C , 19-H ) :   0.9834
B(  1-C ,  2-C ) :   1.2677 B(  1-C , 16-H ) :   0.9322 B(  2-C ,  3-C ) :   1.3845
B(  2-C ,  6-C ) :   1.0827 B(  3-C ,  4-C ) :   1.3137 B(  3-C ,  8-N ) :   1.1195
B(  4-C ,  5-C ) :   1.4833 B(  4-C , 17-H ) :   0.9743 B(  5-C , 18-H ) :   0.9797
B(  6-C ,  7-C ) :   1.3339 B(  6-C , 12-C ) :   1.2085 B(  7-C ,  8-N ) :   1.1504
B(  7-C ,  9-C ) :   1.2825 B(  8-N , 14-H ) :   0.9131 B(  9-C , 10-C ) :   1.4688
B(  9-C , 84-H ) :   0.9758 B( 10-C , 11-C ) :   1.3933 B( 10-C , 15-H ) :   0.9824
B( 11-C , 12-C ) :   1.4489 B( 11-C , 13-H ) :   0.9608 B( 12-C , 27-C ) :   0.8244
B( 20-N , 21-C ) :   1.2294 B( 20-N , 24-C ) :   1.6318 B( 21-C , 22-C ) :   1.6665
B( 21-C , 25-C ) :   0.9988 B( 22-C , 23-S ) :   1.2650 B( 22-C , 30-H ) :   0.9338
B( 23-S , 24-C ) :   1.2455 B( 24-C , 40-C ) :   0.9745 B( 25-C , 26-S ) :   1.2920
B( 25-C , 29-N ) :   1.5684 B( 26-S , 27-C ) :   1.2052 B( 27-C , 28-C ) :   1.6343
B( 28-C , 29-N ) :   1.2980 B( 28-C , 31-H ) :   0.9567 B( 32-C , 33-C ) :   1.4946
B( 32-C , 37-C ) :   1.1902 B( 32-C , 51-N ) :   1.0791 B( 33-C , 34-C ) :   1.2410
B( 33-C , 58-H ) :   0.9917 B( 34-C , 35-C ) :   1.4768 B( 34-C , 85-H ) :   0.9926
B( 35-C , 36-C ) :   1.1933 B( 35-C , 48-N ) :   1.0849 B( 36-C , 37-C ) :   1.2667
B( 36-C , 38-C ) :   1.1519 B( 37-C , 41-C ) :   1.1348 B( 38-C , 39-C ) :   1.6032
B( 38-C , 45-N ) :   1.0455 B( 39-C , 40-C ) :   1.1050 B( 39-C , 59-H ) :   0.9597
B( 40-C , 41-C ) :   1.4620 B( 41-C , 42-N ) :   1.2287 B( 42-N , 43-C ) :   1.7974
B( 43-C , 44-C ) :   0.9290 B( 43-C , 55-C ) :   0.9456 B( 44-C , 63-H ) :   0.9896
B( 44-C , 64-H ) :   0.9717 B( 44-C , 65-H ) :   0.9422 B( 45-N , 46-C ) :   1.9016
B( 46-C , 47-C ) :   0.9533 B( 46-C , 56-C ) :   0.9436 B( 47-C , 81-H ) :   0.9675
B( 47-C , 82-H ) :   0.9887 B( 47-C , 83-H ) :   0.9594 B( 48-N , 49-C ) :   1.9012
B( 49-C , 50-C ) :   0.9522 B( 49-C , 57-C ) :   0.9417 B( 50-C , 72-H ) :   0.9671
B( 50-C , 73-H ) :   0.9601 B( 50-C , 74-H ) :   0.9885 B( 51-N , 52-C ) :   1.8859
B( 52-C , 53-C ) :   0.9615 B( 52-C , 54-C ) :   0.9450 B( 53-C , 69-H ) :   0.9559
B( 53-C , 70-H ) :   0.9666 B( 53-C , 71-H ) :   0.9875 B( 54-C , 66-H ) :   0.9808
B( 54-C , 67-H ) :   0.9599 B( 54-C , 68-H ) :   0.9620 B( 55-C , 60-H ) :   0.9598
B( 55-C , 61-H ) :   0.9579 B( 55-C , 62-H ) :   0.9822 B( 56-C , 78-H ) :   0.9795
B( 56-C , 79-H ) :   0.9626 B( 56-C , 80-H ) :   0.9604 B( 57-C , 75-H ) :   0.9625
B( 57-C , 76-H ) :   0.9804 B( 57-C , 77-H ) :   0.9608

Dispersion correction           -0.051254136
FINAL SINGLE POINT ENERGY     -2726.329954796214

DIPOLE MOMENT
-------------
                                X             Y             Z
Electronic contribution:     57.55521       1.93757      -9.72289
Nuclear contribution   :    -56.54767      -1.88467       9.71930
                        -----------------------------------------
Total Dipole Moment    :      1.00754       0.05289      -0.00359
                        -----------------------------------------
Magnitude (a.u.)       :      1.00894
Magnitude (Debye)      :      2.56451

                             ****ORCA TERMINATED NORMALLY****
TOTAL RUN TIME: 0 days 0 hours 38 minutes 37 seconds 307 msec
