                         Program Version 4.0.0 -  RELEASE  -
|  1> #
|  2> !wB97X-D3 def2-TZVP def2/J RIJCOSX Grid5 FinalGrid6 TightSCF
|  3> %pal
|  4>  nprocs 24
|  5> end
|  6> %tddft
|  7>   Mode sTDDFT
|  8>   nroots 2
|  9>   Ethresh 10.0
| 10>   maxcore 5000
| 11>   triplets true
| 12> end
| 13> * xyz 0 1
| 14> C -5.35959046 -1.82411071 2.67451179
| 15> C -4.54818919 -1.08306006 1.81826480
| 16> C -5.11835289 -0.49435392 0.67453957
| 17> C -6.50089797 -0.71126260 0.41481820
| 18> C -7.32208171 -1.44985894 1.28041121
| 19> C -6.73102273 -1.99692003 2.41710094
| 20> C -4.60720528 0.29088329 -0.43717861
| 21> C -5.70160631 0.47288016 -1.32994380
| 22> N -6.83306319 -0.11143279 -0.78775571
| 23> C -5.57426643 1.12688914 -2.56524442
| 24> C -4.30673946 1.59050872 -2.91359660
| 25> C -3.21503575 1.43692291 -2.04782921
| 26> C -3.33707987 0.81767655 -0.79031829
| 27> H -2.24755340 1.83603947 -2.34252096
| 28> H -7.74449370 -0.14150944 -1.22786610
| 29> H -4.16138658 2.09020441 -3.86746370
| 30> H -3.48795226 -0.98302688 2.03137762
| 31> H -8.37715134 -1.59784734 1.06589616
| 32> H -7.33557598 -2.57665552 3.10952853
| 33> H -4.92531046 -2.28114521 3.55941737
| 34> N 2.36983591 0.41259834 0.47417104
| 35> C 1.47101328 0.66900009 1.50153849
| 36> C 2.03701640 0.81440204 2.75839974
| 37> S 3.76733251 0.62481481 2.66396398
| 38> C 3.61688866 0.35770664 0.91428117
| 39> C 0.05382031 0.76190893 1.19483241
| 40> S -0.53266685 0.54784239 -0.46346380
| 41> C -2.18012183 0.78408598 0.11322574
| 42> C -2.15009844 1.02292271 1.47607996
| 43> N -0.90974378 1.00642148 2.07207780
| 44> H 1.51332447 1.01646338 3.68314347
| 45> H -3.02825833 1.25335962 2.07518664
| 46> S 6.38471315 0.07424348 0.87905987
| 47> C 7.30899390 -0.26151554 -0.61771916
| 48> S 6.28371249 -0.39570743 -2.07900845
| 49> C 4.75538115 -0.10839177 -1.25411668
| 50> C 4.78180328 0.10709671 0.08981285
| 51> C 8.65839287 -0.40110594 -0.64282223
| 52> S 9.68014023 -0.26652867 0.81863916
| 53> C 11.21452469 -0.55712968 -0.02175275
| 54> C 11.17007574 -0.76838376 -1.35084582
| 55> S 9.58095687 -0.73645147 -2.13807499
| 56> H 3.83431157 -0.10924800 -1.82767617
| 57> H 12.04691140 -0.95557938 -1.96118499
| 58> H -6.42532578 1.25160164 -3.22864599
| 59> H 12.13142107 -0.55524778 0.55764993
| 60> *
| 61> $new_job
| 62> #
| 63> !wB97X-D3 def2-TZVP def2/J RIJCOSX Grid5 FinalGrid6 TightSCF
| 64> %pal
| 65>  nprocs 24
| 66> end
| 67> %elprop
| 68>    dipole     true
| 69>    quadrupole true
| 70> end
| 71> %tddft
| 72>   Mode sTDDFT
| 73>   nroots 2
| 74>   Ethresh 10.0
| 75>   maxcore 5000
| 76> end
| 77> * xyz 0 1
| 78> C -5.35959046 -1.82411071 2.67451179
| 79> C -4.54818919 -1.08306006 1.81826480
| 80> C -5.11835289 -0.49435392 0.67453957
| 81> C -6.50089797 -0.71126260 0.41481820
| 82> C -7.32208171 -1.44985894 1.28041121
| 83> C -6.73102273 -1.99692003 2.41710094
| 84> C -4.60720528 0.29088329 -0.43717861
| 85> C -5.70160631 0.47288016 -1.32994380
| 86> N -6.83306319 -0.11143279 -0.78775571
| 87> C -5.57426643 1.12688914 -2.56524442
| 88> C -4.30673946 1.59050872 -2.91359660
| 89> C -3.21503575 1.43692291 -2.04782921
| 90> C -3.33707987 0.81767655 -0.79031829
| 91> H -2.24755340 1.83603947 -2.34252096
| 92> H -7.74449370 -0.14150944 -1.22786610
| 93> H -4.16138658 2.09020441 -3.86746370
| 94> H -3.48795226 -0.98302688 2.03137762
| 95> H -8.37715134 -1.59784734 1.06589616
| 96> H -7.33557598 -2.57665552 3.10952853
| 97> H -4.92531046 -2.28114521 3.55941737
| 98> N 2.36983591 0.41259834 0.47417104
| 99> C 1.47101328 0.66900009 1.50153849
|100> C 2.03701640 0.81440204 2.75839974
|101> S 3.76733251 0.62481481 2.66396398
|102> C 3.61688866 0.35770664 0.91428117
|103> C 0.05382031 0.76190893 1.19483241
|104> S -0.53266685 0.54784239 -0.46346380
|105> C -2.18012183 0.78408598 0.11322574
|106> C -2.15009844 1.02292271 1.47607996
|107> N -0.90974378 1.00642148 2.07207780
|108> H 1.51332447 1.01646338 3.68314347
|109> H -3.02825833 1.25335962 2.07518664
|110> S 6.38471315 0.07424348 0.87905987
|111> C 7.30899390 -0.26151554 -0.61771916
|112> S 6.28371249 -0.39570743 -2.07900845
|113> C 4.75538115 -0.10839177 -1.25411668
|114> C 4.78180328 0.10709671 0.08981285
|115> C 8.65839287 -0.40110594 -0.64282223
|116> S 9.68014023 -0.26652867 0.81863916
|117> C 11.21452469 -0.55712968 -0.02175275
|118> C 11.17007574 -0.76838376 -1.35084582
|119> S 9.58095687 -0.73645147 -2.13807499
|120> H 3.83431157 -0.10924800 -1.82767617
|121> H 12.04691140 -0.95557938 -1.96118499
|122> H -6.42532578 1.25160164 -3.22864599
|123> H 12.13142107 -0.55524778 0.55764993
|124> *
|125>
|126>                          ****END OF INPUT****
 Total Charge           Charge          ....    0
 Multiplicity           Mult            ....    1
 Number of Electrons    NEL             ....  274
Dispersion correction           -0.021248862
FINAL SINGLE POINT ENERGY     -3475.885572183203

CARTESIAN COORDINATES (ANGSTROEM)
---------------------------------
  C     -5.359590   -1.824111    2.674512
  C     -4.548189   -1.083060    1.818265
  C     -5.118353   -0.494354    0.674540
  C     -6.500898   -0.711263    0.414818
  C     -7.322082   -1.449859    1.280411
  C     -6.731023   -1.996920    2.417101
  C     -4.607205    0.290883   -0.437179
  C     -5.701606    0.472880   -1.329944
  N     -6.833063   -0.111433   -0.787756
  C     -5.574266    1.126889   -2.565244
  C     -4.306739    1.590509   -2.913597
  C     -3.215036    1.436923   -2.047829
  C     -3.337080    0.817677   -0.790318
  H     -2.247553    1.836039   -2.342521
  H     -7.744494   -0.141509   -1.227866
  H     -4.161387    2.090204   -3.867464
  H     -3.487952   -0.983027    2.031378
  H     -8.377151   -1.597847    1.065896
  H     -7.335576   -2.576656    3.109529
  H     -4.925310   -2.281145    3.559417
  N      2.369836    0.412598    0.474171
  C      1.471013    0.669000    1.501538
  C      2.037016    0.814402    2.758400
  S      3.767333    0.624815    2.663964
  C      3.616889    0.357707    0.914281
  C      0.053820    0.761909    1.194832
  S     -0.532667    0.547842   -0.463464
  C     -2.180122    0.784086    0.113226
  C     -2.150098    1.022923    1.476080
  N     -0.909744    1.006421    2.072078
  H      1.513324    1.016463    3.683143
  H     -3.028258    1.253360    2.075187
  S      6.384713    0.074243    0.879060
  C      7.308994   -0.261516   -0.617719
  S      6.283712   -0.395707   -2.079008
  C      4.755381   -0.108392   -1.254117
  C      4.781803    0.107097    0.089813
  C      8.658393   -0.401106   -0.642822
  S      9.680140   -0.266529    0.818639
  C     11.214525   -0.557130   -0.021753
  C     11.170076   -0.768384   -1.350846
  S      9.580957   -0.736451   -2.138075
  H      3.834312   -0.109248   -1.827676
  H     12.046911   -0.955579   -1.961185
  H     -6.425326    1.251602   -3.228646
  H     12.131421   -0.555248    0.557650

 Multiplicity           Mult            ....    1
 Number of Electrons    NEL             ....  274
 Basis Dimension        Dim             .... 1137

ORBITAL ENERGIES
----------------

  NO   OCC          E(Eh)            E(eV)
   0   2.0000     -89.004006     -2421.9221
   1   2.0000     -88.993161     -2421.6270
   2   2.0000     -88.990096     -2421.5436
   3   2.0000     -88.988297     -2421.4947
   4   2.0000     -88.988181     -2421.4915
   5   2.0000     -88.987552     -2421.4744
   6   2.0000     -14.469228      -393.7277
   7   2.0000     -14.444207      -393.0469
   8   2.0000     -14.430637      -392.6776
   9   2.0000     -10.378677      -282.4182
  10   2.0000     -10.359732      -281.9026
  11   2.0000     -10.359450      -281.8950
  12   2.0000     -10.358908      -281.8802
  13   2.0000     -10.349195      -281.6159
  14   2.0000     -10.341872      -281.4167
  15   2.0000     -10.341481      -281.4060
  16   2.0000     -10.334970      -281.2288
  17   2.0000     -10.334173      -281.2071
  18   2.0000     -10.330171      -281.0983
  19   2.0000     -10.329854      -281.0896
  20   2.0000     -10.326818      -281.0070
  21   2.0000     -10.325631      -280.9747
  22   2.0000     -10.313243      -280.6376
  23   2.0000     -10.312200      -280.6092
  24   2.0000     -10.296472      -280.1812
  25   2.0000     -10.290987      -280.0320
  26   2.0000     -10.290872      -280.0289
  27   2.0000     -10.289739      -279.9980
  28   2.0000     -10.287363      -279.9334
  29   2.0000     -10.285539      -279.8837
  30   2.0000     -10.284671      -279.8601
  31   2.0000     -10.283076      -279.8167
  32   2.0000     -10.275988      -279.6238
  33   2.0000      -8.100215      -220.4181
  34   2.0000      -8.089343      -220.1222
  35   2.0000      -8.086599      -220.0475
  36   2.0000      -8.084655      -219.9946
  37   2.0000      -8.084541      -219.9916
  38   2.0000      -8.083703      -219.9687
  39   2.0000      -6.053375      -164.7207
  40   2.0000      -6.049184      -164.6067
  41   2.0000      -6.047568      -164.5627
  42   2.0000      -6.043485      -164.4516
  43   2.0000      -6.040793      -164.3783
  44   2.0000      -6.039089      -164.3320
  45   2.0000      -6.038845      -164.3253
  46   2.0000      -6.038724      -164.3220
  47   2.0000      -6.036773      -164.2689
  48   2.0000      -6.036584      -164.2638
  49   2.0000      -6.034796      -164.2151
  50   2.0000      -6.034439      -164.2054
  51   2.0000      -6.034334      -164.2026
  52   2.0000      -6.032774      -164.1601
  53   2.0000      -6.031678      -164.1303
  54   2.0000      -6.031023      -164.1125
  55   2.0000      -6.029976      -164.0840
  56   2.0000      -6.029874      -164.0812
  57   2.0000      -1.105854       -30.0918
  58   2.0000      -1.097460       -29.8634
  59   2.0000      -1.073889       -29.2220
  60   2.0000      -1.019301       -27.7366
  61   2.0000      -0.994209       -27.0538
  62   2.0000      -0.978494       -26.6262
  63   2.0000      -0.966424       -26.2977
  64   2.0000      -0.931921       -25.3589
  65   2.0000      -0.927058       -25.2265
  66   2.0000      -0.919765       -25.0281
  67   2.0000      -0.902101       -24.5474
  68   2.0000      -0.900148       -24.4943
  69   2.0000      -0.888759       -24.1844
  70   2.0000      -0.877045       -23.8656
  71   2.0000      -0.868701       -23.6386
  72   2.0000      -0.853591       -23.2274
  73   2.0000      -0.843555       -22.9543
  74   2.0000      -0.839676       -22.8487
  75   2.0000      -0.820533       -22.3278
  76   2.0000      -0.769060       -20.9272
  77   2.0000      -0.763314       -20.7708
  78   2.0000      -0.739739       -20.1293
  79   2.0000      -0.727891       -19.8069
  80   2.0000      -0.719901       -19.5895
  81   2.0000      -0.714836       -19.4517
  82   2.0000      -0.708470       -19.2785
  83   2.0000      -0.688773       -18.7425
  84   2.0000      -0.673740       -18.3334
  85   2.0000      -0.652641       -17.7593
  86   2.0000      -0.648021       -17.6335
  87   2.0000      -0.642994       -17.4968
  88   2.0000      -0.630404       -17.1542
  89   2.0000      -0.622390       -16.9361
  90   2.0000      -0.613201       -16.6861
  91   2.0000      -0.611827       -16.6487
  92   2.0000      -0.592093       -16.1117
  93   2.0000      -0.584998       -15.9186
  94   2.0000      -0.567565       -15.4442
  95   2.0000      -0.559011       -15.2115
  96   2.0000      -0.552110       -15.0237
  97   2.0000      -0.549038       -14.9401
  98   2.0000      -0.545156       -14.8344
  99   2.0000      -0.537008       -14.6127
 100   2.0000      -0.534256       -14.5378
 101   2.0000      -0.532425       -14.4880
 102   2.0000      -0.530470       -14.4348
 103   2.0000      -0.525274       -14.2934
 104   2.0000      -0.521598       -14.1934
 105   2.0000      -0.519064       -14.1244
 106   2.0000      -0.515053       -14.0153
 107   2.0000      -0.507891       -13.8204
 108   2.0000      -0.498863       -13.5747
 109   2.0000      -0.483965       -13.1694
 110   2.0000      -0.481147       -13.0927
 111   2.0000      -0.477040       -12.9809
 112   2.0000      -0.472089       -12.8462
 113   2.0000      -0.470594       -12.8055
 114   2.0000      -0.468800       -12.7567
 115   2.0000      -0.463996       -12.6260
 116   2.0000      -0.451516       -12.2864
 117   2.0000      -0.444120       -12.0851
 118   2.0000      -0.442848       -12.0505
 119   2.0000      -0.439553       -11.9608
 120   2.0000      -0.433780       -11.8038
 121   2.0000      -0.424043       -11.5388
 122   2.0000      -0.414977       -11.2921
 123   2.0000      -0.398334       -10.8392
 124   2.0000      -0.390964       -10.6387
 125   2.0000      -0.389292       -10.5932
 126   2.0000      -0.386040       -10.5047
 127   2.0000      -0.379274       -10.3206
 128   2.0000      -0.374735       -10.1971
 129   2.0000      -0.372047       -10.1239
 130   2.0000      -0.364189        -9.9101
 131   2.0000      -0.348822        -9.4919
 132   2.0000      -0.327080        -8.9003
 133   2.0000      -0.307942        -8.3795
 134   2.0000      -0.296983        -8.0813
 135   2.0000      -0.280897        -7.6436
 136   2.0000      -0.253984        -6.9113
 137   0.0000      -0.008742        -0.2379
 138   0.0000      -0.001629        -0.0443
 139   0.0000       0.020940         0.5698
 140   0.0000       0.030716         0.8358
 141   0.0000       0.055025         1.4973

MULLIKEN ATOMIC CHARGES
-----------------------
   0 C :   -0.159905
   1 C :   -0.219405
   2 C :   -0.036831
   3 C :    0.168291
   4 C :   -0.224740
   5 C :   -0.088646
   6 C :   -0.014618
   7 C :    0.178614
   8 N :   -0.302634
   9 C :   -0.242338
  10 C :   -0.082134
  11 C :   -0.279343
  12 C :    0.199476
  13 H :    0.131195
  14 H :    0.236793
  15 H :    0.123432
  16 H :    0.208152
  17 H :    0.115401
  18 H :    0.122793
  19 H :    0.120578
  20 N :   -0.326159
  21 C :    0.103329
  22 C :   -0.204000
  23 S :    0.076037
  24 C :    0.256578
  25 C :    0.128056
  26 S :    0.058685
  27 C :    0.042741
  28 C :   -0.219392
  29 N :   -0.274255
  30 H :    0.186136
  31 H :    0.189342
  32 S :   -0.016417
  33 C :    0.062721
  34 S :    0.044586
  35 C :   -0.163176
  36 C :   -0.125791
  37 C :   -0.080127
  38 S :    0.019211
  39 C :   -0.189447
  40 C :   -0.181384
  41 S :    0.018875
  42 H :    0.189047
  43 H :    0.167274
  44 H :    0.116200
  45 H :    0.167201
Sum of atomic charges:   -0.0000000

LOEWDIN ATOMIC CHARGES
----------------------
   0 C :   -0.158175
   1 C :   -0.105009
   2 C :   -0.081338
   3 C :   -0.145235
   4 C :   -0.132724
   5 C :   -0.141730
   6 C :   -0.041392
   7 C :   -0.143704
   8 N :    0.200372
   9 C :   -0.129202
  10 C :   -0.140679
  11 C :   -0.125412
  12 C :   -0.110320
  13 H :    0.146165
  14 H :    0.193121
  15 H :    0.146716
  16 H :    0.154288
  17 H :    0.143162
  18 H :    0.144751
  19 H :    0.144224
  20 N :    0.134750
  21 C :   -0.283161
  22 C :   -0.338533
  23 S :    0.707424
  24 C :   -0.419211
  25 C :   -0.393684
  26 S :    0.745765
  27 C :   -0.321648
  28 C :   -0.232208
  29 N :    0.108696
  30 H :    0.141526
  31 H :    0.148130
  32 S :    0.631837
  33 C :   -0.631455
  34 S :    0.635219
  35 C :   -0.353238
  36 C :   -0.411830
  37 C :   -0.631569
  38 S :    0.611698
  39 C :   -0.422354
  40 C :   -0.422235
  41 S :    0.610170
  42 H :    0.148966
  43 H :    0.137618
  44 H :    0.143812
  45 H :    0.137637

  Mayer bond orders larger than 0.1
B(  0-C ,  1-C ) :   1.5346 B(  0-C ,  5-C ) :   1.3596 B(  0-C , 19-H ) :   0.9845
B(  1-C ,  2-C ) :   1.2797 B(  1-C , 16-H ) :   0.9195 B(  2-C ,  3-C ) :   1.3714
B(  2-C ,  6-C ) :   1.0593 B(  3-C ,  4-C ) :   1.3091 B(  3-C ,  8-N ) :   1.1210
B(  4-C ,  5-C ) :   1.4839 B(  4-C , 17-H ) :   0.9763 B(  5-C , 18-H ) :   0.9813
B(  6-C ,  7-C ) :   1.3259 B(  6-C , 12-C ) :   1.2168 B(  7-C ,  8-N ) :   1.1522
B(  7-C ,  9-C ) :   1.2851 B(  8-N , 14-H ) :   0.9127 B(  9-C , 10-C ) :   1.4676
B(  9-C , 44-H ) :   0.9776 B( 10-C , 11-C ) :   1.4038 B( 10-C , 15-H ) :   0.9838
B( 11-C , 12-C ) :   1.4324 B( 11-C , 13-H ) :   0.9620 B( 12-C , 27-C ) :   0.8365
B( 20-N , 21-C ) :   1.2291 B( 20-N , 24-C ) :   1.6381 B( 21-C , 22-C ) :   1.6781
B( 21-C , 25-C ) :   0.9772 B( 22-C , 23-S ) :   1.2723 B( 22-C , 30-H ) :   0.9115
B( 23-S , 24-C ) :   1.2602 B( 24-C , 36-C ) :   0.9528 B( 25-C , 26-S ) :   1.3284
B( 25-C , 29-N ) :   1.6260 B( 26-S , 27-C ) :   1.2682 B( 27-C , 28-C ) :   1.5785
B( 28-C , 29-N ) :   1.3160 B( 28-C , 31-H ) :   0.9722 B( 32-S , 33-C ) :   1.1231
B( 32-S , 36-C ) :   1.1688 B( 33-C , 34-S ) :   1.0906 B( 33-C , 37-C ) :   1.5722
B( 34-S , 35-C ) :   1.1909 B( 35-C , 36-C ) :   1.8041 B( 35-C , 42-H ) :   0.8991
B( 37-C , 38-S ) :   1.1618 B( 37-C , 41-S ) :   1.1678 B( 38-S , 39-C ) :   1.1273
B( 39-C , 40-C ) :   1.8854 B( 39-C , 45-H ) :   0.9326 B( 40-C , 41-S ) :   1.1225
B( 40-C , 43-H ) :   0.9325

Dispersion correction           -0.021248862
FINAL SINGLE POINT ENERGY     -3475.885572109635

DIPOLE MOMENT
-------------
                                X             Y             Z
Electronic contribution:     38.01249       1.91158      -0.81767
Nuclear contribution   :    -38.23231      -2.05625       0.27864
                        -----------------------------------------
Total Dipole Moment    :     -0.21982      -0.14467      -0.53903
                        -----------------------------------------
Magnitude (a.u.)       :      0.59983
Magnitude (Debye)      :      1.52465

                             ****ORCA TERMINATED NORMALLY****
TOTAL RUN TIME: 0 days 0 hours 12 minutes 53 seconds 520 msec
