                         Program Version 4.0.0 -  RELEASE  -
|  1> #
|  2> !wB97X-D3 def2-TZVP def2/J RIJCOSX Grid5 FinalGrid6 TightSCF
|  3> %pal
|  4>  nprocs 24
|  5> end
|  6> %tddft
|  7>   Mode sTDDFT
|  8>   nroots 2
|  9>   Ethresh 10.0
| 10>   maxcore 5000
| 11>   triplets true
| 12> end
| 13> * xyz 0 1
| 14> C -4.77210660 -2.81874206 0.45235623
| 15> C -4.04017616 -1.65249484 0.24485601
| 16> C -4.72350234 -0.42796758 0.11843046
| 17> C -6.14320123 -0.43198750 0.21934491
| 18> C -6.88367368 -1.60678133 0.42137916
| 19> C -6.17561269 -2.80039170 0.53523356
| 20> C -4.32551880 0.95839138 -0.07132952
| 21> C -5.53233998 1.71926695 -0.05512383
| 22> N -6.60838659 0.86605444 0.10230519
| 23> C -5.55952880 3.11746930 -0.16237059
| 24> C -4.33600005 3.77472694 -0.27326072
| 25> C -3.13406210 3.05653786 -0.29014158
| 26> C -3.09082307 1.65104960 -0.20996233
| 27> H -2.19961637 3.60333283 -0.39409509
| 28> H -7.57829754 1.15140219 0.15894072
| 29> H -4.30988753 4.85778483 -0.35122830
| 30> H -2.95693936 -1.69392286 0.17872310
| 31> H -7.96788948 -1.58301335 0.49121554
| 32> H -6.71459988 -3.73091441 0.69262206
| 33> H -4.24936842 -3.76636798 0.54946924
| 34> S 2.81007728 -1.33563087 -0.70102366
| 35> C 1.98429045 0.15831798 -0.21558310
| 36> N 2.81126511 1.09508868 0.23383848
| 37> N 4.12007090 0.71879443 0.22977550
| 38> C 4.31547936 -0.51698137 -0.22436877
| 39> C 0.55280493 0.32010800 -0.30658808
| 40> N -0.26766328 -0.61883781 -0.76159236
| 41> N -1.58069212 -0.23890170 -0.75423498
| 42> C -1.78695077 0.98524593 -0.29176687
| 43> S -0.27653065 1.80461819 0.17940254
| 44> C 5.60314617 -1.15290176 -0.33048202
| 45> S 5.76887257 -2.78272445 -0.93986277
| 46> C 7.49298509 -2.79579580 -0.75924902
| 47> C 7.94161511 -1.58020711 -0.24316256
| 48> C 6.87216785 -0.63908801 0.00385750
| 49> N 9.25974657 -1.25870756 0.02248667
| 50> C 9.45722331 -0.04562138 0.51055975
| 51> C 8.39153706 0.88904561 0.75550676
| 52> N 7.11910927 0.61515096 0.51312241
| 53> H 10.49052384 0.24803106 0.73481275
| 54> H 8.62815100 1.87982374 1.16225820
| 55> H -6.49758242 3.66518083 -0.14835890
| 56> H 8.09188402 -3.65724030 -1.02631170
| 57> *
| 58> $new_job
| 59> #
| 60> !wB97X-D3 def2-TZVP def2/J RIJCOSX Grid5 FinalGrid6 TightSCF
| 61> %pal
| 62>  nprocs 24
| 63> end
| 64> %elprop
| 65>    dipole     true
| 66>    quadrupole true
| 67> end
| 68> %tddft
| 69>   Mode sTDDFT
| 70>   nroots 2
| 71>   Ethresh 10.0
| 72>   maxcore 5000
| 73> end
| 74> * xyz 0 1
| 75> C -4.77210660 -2.81874206 0.45235623
| 76> C -4.04017616 -1.65249484 0.24485601
| 77> C -4.72350234 -0.42796758 0.11843046
| 78> C -6.14320123 -0.43198750 0.21934491
| 79> C -6.88367368 -1.60678133 0.42137916
| 80> C -6.17561269 -2.80039170 0.53523356
| 81> C -4.32551880 0.95839138 -0.07132952
| 82> C -5.53233998 1.71926695 -0.05512383
| 83> N -6.60838659 0.86605444 0.10230519
| 84> C -5.55952880 3.11746930 -0.16237059
| 85> C -4.33600005 3.77472694 -0.27326072
| 86> C -3.13406210 3.05653786 -0.29014158
| 87> C -3.09082307 1.65104960 -0.20996233
| 88> H -2.19961637 3.60333283 -0.39409509
| 89> H -7.57829754 1.15140219 0.15894072
| 90> H -4.30988753 4.85778483 -0.35122830
| 91> H -2.95693936 -1.69392286 0.17872310
| 92> H -7.96788948 -1.58301335 0.49121554
| 93> H -6.71459988 -3.73091441 0.69262206
| 94> H -4.24936842 -3.76636798 0.54946924
| 95> S 2.81007728 -1.33563087 -0.70102366
| 96> C 1.98429045 0.15831798 -0.21558310
| 97> N 2.81126511 1.09508868 0.23383848
| 98> N 4.12007090 0.71879443 0.22977550
| 99> C 4.31547936 -0.51698137 -0.22436877
|100> C 0.55280493 0.32010800 -0.30658808
|101> N -0.26766328 -0.61883781 -0.76159236
|102> N -1.58069212 -0.23890170 -0.75423498
|103> C -1.78695077 0.98524593 -0.29176687
|104> S -0.27653065 1.80461819 0.17940254
|105> C 5.60314617 -1.15290176 -0.33048202
|106> S 5.76887257 -2.78272445 -0.93986277
|107> C 7.49298509 -2.79579580 -0.75924902
|108> C 7.94161511 -1.58020711 -0.24316256
|109> C 6.87216785 -0.63908801 0.00385750
|110> N 9.25974657 -1.25870756 0.02248667
|111> C 9.45722331 -0.04562138 0.51055975
|112> C 8.39153706 0.88904561 0.75550676
|113> N 7.11910927 0.61515096 0.51312241
|114> H 10.49052384 0.24803106 0.73481275
|115> H 8.62815100 1.87982374 1.16225820
|116> H -6.49758242 3.66518083 -0.14835890
|117> H 8.09188402 -3.65724030 -1.02631170
|118> *
|119>
|120>                          ****END OF INPUT****
 Total Charge           Charge          ....    0
 Multiplicity           Mult            ....    1
 Number of Electrons    NEL             ....  240
Dispersion correction           -0.019191076
FINAL SINGLE POINT ENERGY     -2422.842410706971

CARTESIAN COORDINATES (ANGSTROEM)
---------------------------------
  C     -4.772107   -2.818742    0.452356
  C     -4.040176   -1.652495    0.244856
  C     -4.723502   -0.427968    0.118430
  C     -6.143201   -0.431987    0.219345
  C     -6.883674   -1.606781    0.421379
  C     -6.175613   -2.800392    0.535234
  C     -4.325519    0.958391   -0.071330
  C     -5.532340    1.719267   -0.055124
  N     -6.608387    0.866054    0.102305
  C     -5.559529    3.117469   -0.162371
  C     -4.336000    3.774727   -0.273261
  C     -3.134062    3.056538   -0.290142
  C     -3.090823    1.651050   -0.209962
  H     -2.199616    3.603333   -0.394095
  H     -7.578298    1.151402    0.158941
  H     -4.309888    4.857785   -0.351228
  H     -2.956939   -1.693923    0.178723
  H     -7.967889   -1.583013    0.491216
  H     -6.714600   -3.730914    0.692622
  H     -4.249368   -3.766368    0.549469
  S      2.810077   -1.335631   -0.701024
  C      1.984290    0.158318   -0.215583
  N      2.811265    1.095089    0.233838
  N      4.120071    0.718794    0.229775
  C      4.315479   -0.516981   -0.224369
  C      0.552805    0.320108   -0.306588
  N     -0.267663   -0.618838   -0.761592
  N     -1.580692   -0.238902   -0.754235
  C     -1.786951    0.985246   -0.291767
  S     -0.276531    1.804618    0.179403
  C      5.603146   -1.152902   -0.330482
  S      5.768873   -2.782724   -0.939863
  C      7.492985   -2.795796   -0.759249
  C      7.941615   -1.580207   -0.243163
  C      6.872168   -0.639088    0.003857
  N      9.259747   -1.258708    0.022487
  C      9.457223   -0.045621    0.510560
  C      8.391537    0.889046    0.755507
  N      7.119109    0.615151    0.513122
  H     10.490524    0.248031    0.734813
  H      8.628151    1.879824    1.162258
  H     -6.497582    3.665181   -0.148359
  H      8.091884   -3.657240   -1.026312

 Multiplicity           Mult            ....    1
 Number of Electrons    NEL             ....  240
 Basis Dimension        Dim             .... 1076

ORBITAL ENERGIES
----------------

  NO   OCC          E(Eh)            E(eV)
   0   2.0000     -89.023481     -2422.4521
   1   2.0000     -89.010205     -2422.0908
   2   2.0000     -89.007518     -2422.0177
   3   2.0000     -14.474081      -393.8598
   4   2.0000     -14.472900      -393.8276
   5   2.0000     -14.471193      -393.7812
   6   2.0000     -14.464461      -393.5980
   7   2.0000     -14.464216      -393.5913
   8   2.0000     -14.460447      -393.4888
   9   2.0000     -14.455327      -393.3494
  10   2.0000     -10.382021      -282.5092
  11   2.0000     -10.380097      -282.4568
  12   2.0000     -10.379104      -282.4298
  13   2.0000     -10.374731      -282.3108
  14   2.0000     -10.352470      -281.7050
  15   2.0000     -10.348308      -281.5918
  16   2.0000     -10.347717      -281.5757
  17   2.0000     -10.346923      -281.5541
  18   2.0000     -10.345322      -281.5105
  19   2.0000     -10.343384      -281.4578
  20   2.0000     -10.335227      -281.2358
  21   2.0000     -10.326535      -280.9993
  22   2.0000     -10.321189      -280.8538
  23   2.0000     -10.305601      -280.4297
  24   2.0000     -10.299880      -280.2740
  25   2.0000     -10.296538      -280.1831
  26   2.0000     -10.295364      -280.1511
  27   2.0000     -10.289450      -279.9902
  28   2.0000     -10.284893      -279.8662
  29   2.0000     -10.283939      -279.8402
  30   2.0000     -10.277922      -279.6765
  31   2.0000     -10.271276      -279.4956
  32   2.0000      -8.118801      -220.9238
  33   2.0000      -8.106516      -220.5895
  34   2.0000      -8.103738      -220.5139
  35   2.0000      -6.071705      -165.2195
  36   2.0000      -6.067616      -165.1082
  37   2.0000      -6.066799      -165.0860
  38   2.0000      -6.059629      -164.8909
  39   2.0000      -6.056831      -164.8148
  40   2.0000      -6.055788      -164.7864
  41   2.0000      -6.053466      -164.7232
  42   2.0000      -6.052902      -164.7078
  43   2.0000      -6.050823      -164.6513
  44   2.0000      -1.157101       -31.4863
  45   2.0000      -1.149093       -31.2684
  46   2.0000      -1.110927       -30.2299
  47   2.0000      -1.108420       -30.1616
  48   2.0000      -1.039557       -28.2878
  49   2.0000      -1.020668       -27.7738
  50   2.0000      -0.994013       -27.0485
  51   2.0000      -0.978047       -26.6140
  52   2.0000      -0.964475       -26.2447
  53   2.0000      -0.950375       -25.8610
  54   2.0000      -0.935970       -25.4690
  55   2.0000      -0.915932       -24.9238
  56   2.0000      -0.902305       -24.5530
  57   2.0000      -0.888909       -24.1884
  58   2.0000      -0.875751       -23.8304
  59   2.0000      -0.865519       -23.5520
  60   2.0000      -0.847399       -23.0589
  61   2.0000      -0.841746       -22.9051
  62   2.0000      -0.795113       -21.6361
  63   2.0000      -0.785936       -21.3864
  64   2.0000      -0.774162       -21.0660
  65   2.0000      -0.760106       -20.6835
  66   2.0000      -0.736695       -20.0465
  67   2.0000      -0.725045       -19.7295
  68   2.0000      -0.722320       -19.6553
  69   2.0000      -0.712887       -19.3986
  70   2.0000      -0.691675       -18.8214
  71   2.0000      -0.671034       -18.2598
  72   2.0000      -0.664377       -18.0786
  73   2.0000      -0.650118       -17.6906
  74   2.0000      -0.641030       -17.4433
  75   2.0000      -0.625457       -17.0195
  76   2.0000      -0.617484       -16.8026
  77   2.0000      -0.610787       -16.6204
  78   2.0000      -0.609157       -16.5760
  79   2.0000      -0.580113       -15.7857
  80   2.0000      -0.576498       -15.6873
  81   2.0000      -0.571949       -15.5635
  82   2.0000      -0.563122       -15.3233
  83   2.0000      -0.561803       -15.2874
  84   2.0000      -0.552665       -15.0388
  85   2.0000      -0.550183       -14.9712
  86   2.0000      -0.548145       -14.9158
  87   2.0000      -0.540337       -14.7033
  88   2.0000      -0.538809       -14.6617
  89   2.0000      -0.533862       -14.5271
  90   2.0000      -0.529917       -14.4198
  91   2.0000      -0.526019       -14.3137
  92   2.0000      -0.519617       -14.1395
  93   2.0000      -0.515320       -14.0226
  94   2.0000      -0.507208       -13.8018
  95   2.0000      -0.486536       -13.2393
  96   2.0000      -0.477845       -13.0028
  97   2.0000      -0.472291       -12.8517
  98   2.0000      -0.471354       -12.8262
  99   2.0000      -0.468771       -12.7559
 100   2.0000      -0.455316       -12.3898
 101   2.0000      -0.446621       -12.1532
 102   2.0000      -0.444723       -12.1015
 103   2.0000      -0.435720       -11.8565
 104   2.0000      -0.430202       -11.7064
 105   2.0000      -0.421670       -11.4742
 106   2.0000      -0.419761       -11.4223
 107   2.0000      -0.401828       -10.9343
 108   2.0000      -0.401164       -10.9162
 109   2.0000      -0.394281       -10.7289
 110   2.0000      -0.384320       -10.4579
 111   2.0000      -0.376086       -10.2338
 112   2.0000      -0.371553       -10.1105
 113   2.0000      -0.364869        -9.9286
 114   2.0000      -0.361179        -9.8282
 115   2.0000      -0.351035        -9.5521
 116   2.0000      -0.339240        -9.2312
 117   2.0000      -0.307035        -8.3548
 118   2.0000      -0.299422        -8.1477
 119   2.0000      -0.289933        -7.8895
 120   0.0000      -0.055855        -1.5199
 121   0.0000      -0.022909        -0.6234
 122   0.0000       0.009977         0.2715
 123   0.0000       0.036045         0.9808
 124   0.0000       0.041310         1.1241

MULLIKEN ATOMIC CHARGES
-----------------------
   0 C :   -0.175447
   1 C :   -0.129196
   2 C :   -0.031385
   3 C :    0.172079
   4 C :   -0.237790
   5 C :   -0.079139
   6 C :   -0.031720
   7 C :    0.184328
   8 N :   -0.302483
   9 C :   -0.223673
  10 C :   -0.096470
  11 C :   -0.281600
  12 C :    0.126499
  13 H :    0.130932
  14 H :    0.236731
  15 H :    0.127443
  16 H :    0.157522
  17 H :    0.113070
  18 H :    0.122479
  19 H :    0.119121
  20 S :    0.054785
  21 C :    0.095220
  22 N :   -0.171115
  23 N :   -0.099825
  24 C :    0.190724
  25 C :    0.125896
  26 N :   -0.170828
  27 N :   -0.191772
  28 C :    0.164702
  29 S :    0.065851
  30 C :   -0.101474
  31 S :    0.118042
  32 C :   -0.210961
  33 C :    0.070734
  34 C :    0.056919
  35 N :   -0.243415
  36 C :    0.002281
  37 C :   -0.029294
  38 N :   -0.222981
  39 H :    0.144407
  40 H :    0.145253
  41 H :    0.122242
  42 H :    0.183307
Sum of atomic charges:   -0.0000000

LOEWDIN ATOMIC CHARGES
----------------------
   0 C :   -0.157968
   1 C :   -0.091633
   2 C :   -0.077944
   3 C :   -0.144422
   4 C :   -0.136288
   5 C :   -0.139006
   6 C :   -0.028063
   7 C :   -0.143096
   8 N :    0.201643
   9 C :   -0.117622
  10 C :   -0.141110
  11 C :   -0.122827
  12 C :   -0.116214
  13 H :    0.145569
  14 H :    0.193624
  15 H :    0.148006
  16 H :    0.153988
  17 H :    0.142545
  18 H :    0.144536
  19 H :    0.143995
  20 S :    0.718506
  21 C :   -0.456222
  22 N :    0.051184
  23 N :    0.058724
  24 C :   -0.439036
  25 C :   -0.461128
  26 N :    0.043148
  27 N :    0.047530
  28 C :   -0.373629
  29 S :    0.739970
  30 C :   -0.341656
  31 S :    0.778790
  32 C :   -0.330364
  33 C :   -0.241524
  34 C :   -0.188802
  35 N :    0.164014
  36 C :   -0.196866
  37 C :   -0.189912
  38 N :    0.186129
  39 H :    0.143691
  40 H :    0.145089
  41 H :    0.145848
  42 H :    0.138805

  Mayer bond orders larger than 0.1
B(  0-C ,  1-C ) :   1.5383 B(  0-C ,  5-C ) :   1.3527 B(  0-C , 19-H ) :   0.9853
B(  1-C ,  2-C ) :   1.2694 B(  1-C , 16-H ) :   0.9350 B(  2-C ,  3-C ) :   1.3564
B(  2-C ,  6-C ) :   1.0949 B(  3-C ,  4-C ) :   1.3047 B(  3-C ,  8-N ) :   1.1149
B(  4-C ,  5-C ) :   1.4842 B(  4-C , 17-H ) :   0.9764 B(  5-C , 18-H ) :   0.9801
B(  6-C ,  7-C ) :   1.3238 B(  6-C , 12-C ) :   1.2554 B(  7-C ,  8-N ) :   1.1542
B(  7-C ,  9-C ) :   1.2907 B(  8-N , 14-H ) :   0.9125 B(  9-C , 10-C ) :   1.4690
B(  9-C , 41-H ) :   0.9711 B( 10-C , 11-C ) :   1.4199 B( 10-C , 15-H ) :   0.9802
B( 11-C , 12-C ) :   1.4028 B( 11-C , 13-H ) :   0.9591 B( 12-C , 28-C ) :   0.9329
B( 20-S , 21-C ) :   1.3033 B( 20-S , 24-C ) :   1.2859 B( 21-C , 22-N ) :   1.7050
B( 21-C , 25-C ) :   0.9457 B( 22-N , 23-N ) :   1.1298 B( 23-N , 24-C ) :   1.7003
B( 24-C , 30-C ) :   0.9469 B( 25-C , 26-N ) :   1.7035 B( 25-C , 29-S ) :   1.3055
B( 26-N , 27-N ) :   1.1240 B( 27-N , 28-C ) :   1.6413 B( 28-C , 29-S ) :   1.2881
B( 30-C , 31-S ) :   1.3316 B( 30-C , 34-C ) :   1.3597 B( 31-S , 32-C ) :   1.3462
B( 32-C , 33-C ) :   1.5343 B( 32-C , 42-H ) :   0.9200 B( 33-C , 34-C ) :   1.2177
B( 33-C , 35-N ) :   1.2517 B( 34-C , 38-N ) :   1.2736 B( 35-N , 36-C ) :   1.6797
B( 36-C , 37-C ) :   1.1585 B( 36-C , 39-H ) :   0.9615 B( 37-C , 38-N ) :   1.7020
B( 37-C , 40-H ) :   0.9646

Dispersion correction           -0.019191076
FINAL SINGLE POINT ENERGY     -2422.842410556997

DIPOLE MOMENT
-------------
                                X             Y             Z
Electronic contribution:     21.95436      -1.97835      -2.99292
Nuclear contribution   :    -22.44211       2.18503       3.11336
                        -----------------------------------------
Total Dipole Moment    :     -0.48776       0.20668       0.12044
                        -----------------------------------------
Magnitude (a.u.)       :      0.54326
Magnitude (Debye)      :      1.38085

                             ****ORCA TERMINATED NORMALLY****
TOTAL RUN TIME: 0 days 0 hours 14 minutes 1 seconds 36 msec
