                         Program Version 4.0.0 -  RELEASE  -
|  1> #
|  2> !wB97X-D3 def2-TZVP def2/J RIJCOSX Grid5 FinalGrid6 TightSCF
|  3> %pal
|  4>  nprocs 24
|  5> end
|  6> %tddft
|  7>   Mode sTDDFT
|  8>   nroots 2
|  9>   Ethresh 10.0
| 10>   maxcore 5000
| 11>   triplets true
| 12> end
| 13> * xyz 0 1
| 14> C -4.71377252 3.24156896 -0.21296990
| 15> C -4.56975136 1.86596552 -0.05128289
| 16> C -5.60111067 1.01207910 -0.48508188
| 17> C -6.77896929 1.59603732 -1.03118323
| 18> C -6.92485199 2.98159281 -1.20006956
| 19> C -5.87076758 3.79401825 -0.79029113
| 20> C -5.82626445 -0.42421374 -0.45828213
| 21> C -7.14925789 -0.62558865 -0.94906067
| 22> N -7.69094568 0.59412484 -1.31253116
| 23> C -7.75649235 -1.88909521 -1.00644527
| 24> C -7.01933668 -2.97602985 -0.54134190
| 25> C -5.70896404 -2.81165638 -0.07178439
| 26> C -5.07725296 -1.55494990 -0.04152195
| 27> H -5.14749320 -3.68160791 0.25644650
| 28> H -8.62543618 0.73463207 -1.67645648
| 29> H -7.45826422 -3.96967492 -0.55584517
| 30> H -3.67453785 1.47253459 0.42167869
| 31> H -7.83142488 3.40379754 -1.62518293
| 32> H -5.94854156 4.87187274 -0.90413287
| 33> H -3.91896660 3.90390353 0.11835944
| 34> S 1.32144241 -1.92395524 1.65050445
| 35> C 0.17275186 -1.13707841 0.54904396
| 36> N 0.74777711 -0.30244559 -0.30673857
| 37> N 2.10231126 -0.22293232 -0.16123788
| 38> C 2.57855071 -0.99703304 0.80823315
| 39> C -1.24789511 -1.39548578 0.59793959
| 40> N -1.81752372 -2.22551528 1.46114059
| 41> N -3.17546458 -2.30857385 1.31529191
| 42> C -3.66219538 -1.52576987 0.36330731
| 43> S -2.40010791 -0.61559483 -0.49514708
| 44> S 10.87958763 2.24836848 -1.45480735
| 45> C 9.81149316 1.22295569 -0.46811131
| 46> C 10.37432212 0.46050479 0.50317645
| 47> S 12.13874495 0.54200594 0.71886178
| 48> C 12.45785732 1.76593243 -0.62654140
| 49> S 9.30234866 -0.56027587 1.48391430
| 50> C 7.80347588 -0.05293641 0.64085950
| 51> S 8.05083061 1.13618819 -0.67707659
| 52> C 6.57646306 -0.53023624 0.97252825
| 53> S 5.07366477 -0.03323074 0.14069186
| 54> C 3.98873594 -1.05717718 1.12336441
| 55> C 4.57008250 -1.81550977 2.09316520
| 56> S 6.31740065 -1.71689238 2.28563236
| 57> H 13.14503325 1.33399340 -1.36360027
| 58> H 12.94311972 2.65594667 -0.20889146
| 59> H -8.76681073 -2.01134227 -1.38658555
| 60> H 4.00640579 -2.47342125 2.74786127
| 61> *
| 62> $new_job
| 63> #
| 64> !wB97X-D3 def2-TZVP def2/J RIJCOSX Grid5 FinalGrid6 TightSCF
| 65> %pal
| 66>  nprocs 24
| 67> end
| 68> %elprop
| 69>    dipole     true
| 70>    quadrupole true
| 71> end
| 72> %tddft
| 73>   Mode sTDDFT
| 74>   nroots 2
| 75>   Ethresh 10.0
| 76>   maxcore 5000
| 77> end
| 78> * xyz 0 1
| 79> C -4.71377252 3.24156896 -0.21296990
| 80> C -4.56975136 1.86596552 -0.05128289
| 81> C -5.60111067 1.01207910 -0.48508188
| 82> C -6.77896929 1.59603732 -1.03118323
| 83> C -6.92485199 2.98159281 -1.20006956
| 84> C -5.87076758 3.79401825 -0.79029113
| 85> C -5.82626445 -0.42421374 -0.45828213
| 86> C -7.14925789 -0.62558865 -0.94906067
| 87> N -7.69094568 0.59412484 -1.31253116
| 88> C -7.75649235 -1.88909521 -1.00644527
| 89> C -7.01933668 -2.97602985 -0.54134190
| 90> C -5.70896404 -2.81165638 -0.07178439
| 91> C -5.07725296 -1.55494990 -0.04152195
| 92> H -5.14749320 -3.68160791 0.25644650
| 93> H -8.62543618 0.73463207 -1.67645648
| 94> H -7.45826422 -3.96967492 -0.55584517
| 95> H -3.67453785 1.47253459 0.42167869
| 96> H -7.83142488 3.40379754 -1.62518293
| 97> H -5.94854156 4.87187274 -0.90413287
| 98> H -3.91896660 3.90390353 0.11835944
| 99> S 1.32144241 -1.92395524 1.65050445
|100> C 0.17275186 -1.13707841 0.54904396
|101> N 0.74777711 -0.30244559 -0.30673857
|102> N 2.10231126 -0.22293232 -0.16123788
|103> C 2.57855071 -0.99703304 0.80823315
|104> C -1.24789511 -1.39548578 0.59793959
|105> N -1.81752372 -2.22551528 1.46114059
|106> N -3.17546458 -2.30857385 1.31529191
|107> C -3.66219538 -1.52576987 0.36330731
|108> S -2.40010791 -0.61559483 -0.49514708
|109> S 10.87958763 2.24836848 -1.45480735
|110> C 9.81149316 1.22295569 -0.46811131
|111> C 10.37432212 0.46050479 0.50317645
|112> S 12.13874495 0.54200594 0.71886178
|113> C 12.45785732 1.76593243 -0.62654140
|114> S 9.30234866 -0.56027587 1.48391430
|115> C 7.80347588 -0.05293641 0.64085950
|116> S 8.05083061 1.13618819 -0.67707659
|117> C 6.57646306 -0.53023624 0.97252825
|118> S 5.07366477 -0.03323074 0.14069186
|119> C 3.98873594 -1.05717718 1.12336441
|120> C 4.57008250 -1.81550977 2.09316520
|121> S 6.31740065 -1.71689238 2.28563236
|122> H 13.14503325 1.33399340 -1.36360027
|123> H 12.94311972 2.65594667 -0.20889146
|124> H -8.76681073 -2.01134227 -1.38658555
|125> H 4.00640579 -2.47342125 2.74786127
|126> *
|127>
|128>                          ****END OF INPUT****
 Total Charge           Charge          ....    0
 Multiplicity           Mult            ....    1
 Number of Electrons    NEL             ....  312
Dispersion correction           -0.021904089
FINAL SINGLE POINT ENERGY     -4342.423410572543

CARTESIAN COORDINATES (ANGSTROEM)
---------------------------------
  C     -4.713773    3.241569   -0.212970
  C     -4.569751    1.865966   -0.051283
  C     -5.601111    1.012079   -0.485082
  C     -6.778969    1.596037   -1.031183
  C     -6.924852    2.981593   -1.200070
  C     -5.870768    3.794018   -0.790291
  C     -5.826264   -0.424214   -0.458282
  C     -7.149258   -0.625589   -0.949061
  N     -7.690946    0.594125   -1.312531
  C     -7.756492   -1.889095   -1.006445
  C     -7.019337   -2.976030   -0.541342
  C     -5.708964   -2.811656   -0.071784
  C     -5.077253   -1.554950   -0.041522
  H     -5.147493   -3.681608    0.256447
  H     -8.625436    0.734632   -1.676456
  H     -7.458264   -3.969675   -0.555845
  H     -3.674538    1.472535    0.421679
  H     -7.831425    3.403798   -1.625183
  H     -5.948542    4.871873   -0.904133
  H     -3.918967    3.903904    0.118359
  S      1.321442   -1.923955    1.650504
  C      0.172752   -1.137078    0.549044
  N      0.747777   -0.302446   -0.306739
  N      2.102311   -0.222932   -0.161238
  C      2.578551   -0.997033    0.808233
  C     -1.247895   -1.395486    0.597940
  N     -1.817524   -2.225515    1.461141
  N     -3.175465   -2.308574    1.315292
  C     -3.662195   -1.525770    0.363307
  S     -2.400108   -0.615595   -0.495147
  S     10.879588    2.248368   -1.454807
  C      9.811493    1.222956   -0.468111
  C     10.374322    0.460505    0.503176
  S     12.138745    0.542006    0.718862
  C     12.457857    1.765932   -0.626541
  S      9.302349   -0.560276    1.483914
  C      7.803476   -0.052936    0.640859
  S      8.050831    1.136188   -0.677077
  C      6.576463   -0.530236    0.972528
  S      5.073665   -0.033231    0.140692
  C      3.988736   -1.057177    1.123364
  C      4.570082   -1.815510    2.093165
  S      6.317401   -1.716892    2.285632
  H     13.145033    1.333993   -1.363600
  H     12.943120    2.655947   -0.208891
  H     -8.766811   -2.011342   -1.386586
  H      4.006406   -2.473421    2.747861

 Multiplicity           Mult            ....    1
 Number of Electrons    NEL             ....  312
 Basis Dimension        Dim             .... 1230

ORBITAL ENERGIES
----------------

  NO   OCC          E(Eh)            E(eV)
   0   2.0000     -89.019354     -2422.3398
   1   2.0000     -89.011928     -2422.1377
   2   2.0000     -89.001357     -2421.8500
   3   2.0000     -88.996687     -2421.7230
   4   2.0000     -88.996008     -2421.7045
   5   2.0000     -88.992590     -2421.6115
   6   2.0000     -88.985096     -2421.4076
   7   2.0000     -88.984869     -2421.4014
   8   2.0000     -14.481733      -394.0680
   9   2.0000     -14.477176      -393.9440
  10   2.0000     -14.476987      -393.9388
  11   2.0000     -14.476987      -393.9388
  12   2.0000     -14.468258      -393.7013
  13   2.0000     -10.389125      -282.7025
  14   2.0000     -10.388928      -282.6971
  15   2.0000     -10.383140      -282.5396
  16   2.0000     -10.377571      -282.3881
  17   2.0000     -10.366860      -282.0966
  18   2.0000     -10.365549      -282.0609
  19   2.0000     -10.363198      -281.9970
  20   2.0000     -10.360552      -281.9250
  21   2.0000     -10.360422      -281.9214
  22   2.0000     -10.359818      -281.9050
  23   2.0000     -10.354618      -281.7635
  24   2.0000     -10.338999      -281.3385
  25   2.0000     -10.334841      -281.2253
  26   2.0000     -10.322164      -280.8804
  27   2.0000     -10.309146      -280.5261
  28   2.0000     -10.301896      -280.3288
  29   2.0000     -10.299756      -280.2706
  30   2.0000     -10.297244      -280.2023
  31   2.0000     -10.294072      -280.1160
  32   2.0000     -10.293405      -280.0978
  33   2.0000     -10.293336      -280.0959
  34   2.0000     -10.292517      -280.0736
  35   2.0000     -10.282912      -279.8123
  36   2.0000      -8.115482      -220.8335
  37   2.0000      -8.108179      -220.6348
  38   2.0000      -8.097520      -220.3447
  39   2.0000      -8.092598      -220.2108
  40   2.0000      -8.091850      -220.1904
  41   2.0000      -8.088532      -220.1001
  42   2.0000      -8.081502      -219.9088
  43   2.0000      -8.081285      -219.9029
  44   2.0000      -6.068669      -165.1369
  45   2.0000      -6.064741      -165.0300
  46   2.0000      -6.062416      -164.9667
  47   2.0000      -6.061284      -164.9359
  48   2.0000      -6.057278      -164.8269
  49   2.0000      -6.055284      -164.7726
  50   2.0000      -6.051658      -164.6740
  51   2.0000      -6.047235      -164.5536
  52   2.0000      -6.046939      -164.5456
  53   2.0000      -6.046204      -164.5256
  54   2.0000      -6.043007      -164.4386
  55   2.0000      -6.042910      -164.4359
  56   2.0000      -6.042766      -164.4320
  57   2.0000      -6.041998      -164.4111
  58   2.0000      -6.038470      -164.3151
  59   2.0000      -6.037429      -164.2868
  60   2.0000      -6.036680      -164.2664
  61   2.0000      -6.036113      -164.2510
  62   2.0000      -6.035910      -164.2455
  63   2.0000      -6.033481      -164.1794
  64   2.0000      -6.031838      -164.1347
  65   2.0000      -6.031625      -164.1289
  66   2.0000      -6.025745      -163.9689
  67   2.0000      -6.025518      -163.9627
  68   2.0000      -1.164905       -31.6987
  69   2.0000      -1.154134       -31.4056
  70   2.0000      -1.114313       -30.3220
  71   2.0000      -1.032233       -28.0885
  72   2.0000      -1.018218       -27.7071
  73   2.0000      -0.997944       -27.1554
  74   2.0000      -0.984289       -26.7839
  75   2.0000      -0.974569       -26.5194
  76   2.0000      -0.969921       -26.3929
  77   2.0000      -0.952196       -25.9106
  78   2.0000      -0.940024       -25.5794
  79   2.0000      -0.922635       -25.1062
  80   2.0000      -0.908973       -24.7344
  81   2.0000      -0.907957       -24.7068
  82   2.0000      -0.903379       -24.5822
  83   2.0000      -0.887380       -24.1468
  84   2.0000      -0.880313       -23.9545
  85   2.0000      -0.854887       -23.2627
  86   2.0000      -0.848268       -23.0825
  87   2.0000      -0.847655       -23.0659
  88   2.0000      -0.845708       -23.0129
  89   2.0000      -0.789818       -21.4920
  90   2.0000      -0.783405       -21.3175
  91   2.0000      -0.777977       -21.1698
  92   2.0000      -0.750959       -20.4346
  93   2.0000      -0.731694       -19.9104
  94   2.0000      -0.725604       -19.7447
  95   2.0000      -0.722751       -19.6670
  96   2.0000      -0.718263       -19.5449
  97   2.0000      -0.691156       -18.8073
  98   2.0000      -0.677950       -18.4480
  99   2.0000      -0.667190       -18.1552
 100   2.0000      -0.650594       -17.7036
 101   2.0000      -0.644934       -17.5496
 102   2.0000      -0.644080       -17.5263
 103   2.0000      -0.635449       -17.2914
 104   2.0000      -0.621608       -16.9148
 105   2.0000      -0.616920       -16.7872
 106   2.0000      -0.586993       -15.9729
 107   2.0000      -0.581164       -15.8143
 108   2.0000      -0.574325       -15.6282
 109   2.0000      -0.572415       -15.5762
 110   2.0000      -0.565802       -15.3962
 111   2.0000      -0.558601       -15.2003
 112   2.0000      -0.556205       -15.1351
 113   2.0000      -0.551004       -14.9936
 114   2.0000      -0.550141       -14.9701
 115   2.0000      -0.547043       -14.8858
 116   2.0000      -0.546470       -14.8702
 117   2.0000      -0.540761       -14.7148
 118   2.0000      -0.538261       -14.6468
 119   2.0000      -0.530535       -14.4366
 120   2.0000      -0.528587       -14.3836
 121   2.0000      -0.525586       -14.3019
 122   2.0000      -0.520573       -14.1655
 123   2.0000      -0.503108       -13.6903
 124   2.0000      -0.500868       -13.6293
 125   2.0000      -0.498172       -13.5560
 126   2.0000      -0.483741       -13.1633
 127   2.0000      -0.476347       -12.9621
 128   2.0000      -0.475358       -12.9351
 129   2.0000      -0.473145       -12.8749
 130   2.0000      -0.466254       -12.6874
 131   2.0000      -0.457939       -12.4612
 132   2.0000      -0.457294       -12.4436
 133   2.0000      -0.453687       -12.3455
 134   2.0000      -0.447584       -12.1794
 135   2.0000      -0.444230       -12.0881
 136   2.0000      -0.434514       -11.8237
 137   2.0000      -0.425530       -11.5793
 138   2.0000      -0.423080       -11.5126
 139   2.0000      -0.416260       -11.3270
 140   2.0000      -0.410229       -11.1629
 141   2.0000      -0.407632       -11.0922
 142   2.0000      -0.406115       -11.0510
 143   2.0000      -0.396544       -10.7905
 144   2.0000      -0.392761       -10.6876
 145   2.0000      -0.386525       -10.5179
 146   2.0000      -0.382503       -10.4084
 147   2.0000      -0.374022       -10.1777
 148   2.0000      -0.372268       -10.1299
 149   2.0000      -0.358114        -9.7448
 150   2.0000      -0.352821        -9.6007
 151   2.0000      -0.334498        -9.1022
 152   2.0000      -0.308034        -8.3820
 153   2.0000      -0.299207        -8.1418
 154   2.0000      -0.295801        -8.0492
 155   2.0000      -0.253325        -6.8933
 156   0.0000      -0.041973        -1.1421
 157   0.0000      -0.003283        -0.0893
 158   0.0000       0.019672         0.5353
 159   0.0000       0.024672         0.6713
 160   0.0000       0.041110         1.1187

MULLIKEN ATOMIC CHARGES
-----------------------
   0 C :   -0.172337
   1 C :   -0.134200
   2 C :   -0.027374
   3 C :    0.173856
   4 C :   -0.237459
   5 C :   -0.078030
   6 C :   -0.040257
   7 C :    0.180428
   8 N :   -0.300866
   9 C :   -0.231541
  10 C :   -0.062530
  11 C :   -0.286784
  12 C :    0.170668
  13 H :    0.148283
  14 H :    0.238960
  15 H :    0.130060
  16 H :    0.141556
  17 H :    0.118691
  18 H :    0.126115
  19 H :    0.123310
  20 S :    0.063290
  21 C :    0.096796
  22 N :   -0.170883
  23 N :   -0.150873
  24 C :    0.168204
  25 C :    0.119804
  26 N :   -0.168424
  27 N :   -0.155079
  28 C :    0.067873
  29 S :    0.067931
  30 S :   -0.021875
  31 C :   -0.034368
  32 C :   -0.030383
  33 S :   -0.023223
  34 C :   -0.222193
  35 S :    0.007421
  36 C :   -0.103234
  37 S :    0.014118
  38 C :    0.063280
  39 S :    0.045874
  40 C :   -0.094934
  41 C :   -0.169013
  42 S :    0.047221
  43 H :    0.152186
  44 H :    0.152619
  45 H :    0.121658
  46 H :    0.175661
Sum of atomic charges:   -0.0000000

LOEWDIN ATOMIC CHARGES
----------------------
   0 C :   -0.154255
   1 C :   -0.113702
   2 C :   -0.086583
   3 C :   -0.143371
   4 C :   -0.129837
   5 C :   -0.136986
   6 C :   -0.045911
   7 C :   -0.143053
   8 N :    0.202460
   9 C :   -0.117722
  10 C :   -0.136801
  11 C :   -0.097152
  12 C :   -0.115805
  13 H :    0.156297
  14 H :    0.194479
  15 H :    0.148577
  16 H :    0.140745
  17 H :    0.144304
  18 H :    0.146133
  19 H :    0.145727
  20 S :    0.735394
  21 C :   -0.450483
  22 N :    0.051476
  23 N :    0.042225
  24 C :   -0.442045
  25 C :   -0.464076
  26 N :    0.047029
  27 N :    0.049763
  28 C :   -0.381220
  29 S :    0.760325
  30 S :    0.532774
  31 C :   -0.661451
  32 C :   -0.662114
  33 S :    0.531070
  34 C :   -0.596464
  35 S :    0.621857
  36 C :   -0.622668
  37 S :    0.629241
  38 C :   -0.630747
  39 S :    0.674152
  40 C :   -0.407112
  41 C :   -0.370413
  42 S :    0.640968
  43 H :    0.113998
  44 H :    0.114043
  45 H :    0.145889
  46 H :    0.141045

  Mayer bond orders larger than 0.1
B(  0-C ,  1-C ) :   1.5381 B(  0-C ,  5-C ) :   1.3598 B(  0-C , 19-H ) :   0.9823
B(  1-C ,  2-C ) :   1.2531 B(  1-C , 16-H ) :   0.9343 B(  2-C ,  3-C ) :   1.3902
B(  2-C ,  6-C ) :   1.0771 B(  3-C ,  4-C ) :   1.3042 B(  3-C ,  8-N ) :   1.1240
B(  4-C ,  5-C ) :   1.4839 B(  4-C , 17-H ) :   0.9764 B(  5-C , 18-H ) :   0.9800
B(  6-C ,  7-C ) :   1.3344 B(  6-C , 12-C ) :   1.2034 B(  7-C ,  8-N ) :   1.1523
B(  7-C ,  9-C ) :   1.2906 B(  8-N , 14-H ) :   0.9113 B(  9-C , 10-C ) :   1.4567
B(  9-C , 45-H ) :   0.9721 B( 10-C , 11-C ) :   1.3833 B( 10-C , 15-H ) :   0.9834
B( 11-C , 12-C ) :   1.4592 B( 11-C , 13-H ) :   0.9598 B( 12-C , 28-C ) :   0.8729
B( 20-S , 21-C ) :   1.3127 B( 20-S , 24-C ) :   1.2914 B( 20-S , 25-C ) :  -0.1041
B( 21-C , 22-N ) :   1.7127 B( 21-C , 25-C ) :   0.9323 B( 22-N , 23-N ) :   1.1527
B( 23-N , 24-C ) :   1.6827 B( 24-C , 40-C ) :   0.9413 B( 25-C , 26-N ) :   1.7247
B( 25-C , 29-S ) :   1.2936 B( 26-N , 27-N ) :   1.1613 B( 27-N , 28-C ) :   1.6954
B( 28-C , 29-S ) :   1.2577 B( 30-S , 31-C ) :   1.0936 B( 30-S , 34-C ) :   1.0257
B( 31-C , 32-C ) :   1.7610 B( 31-C , 37-S ) :   1.1103 B( 32-C , 33-S ) :   1.0917
B( 32-C , 35-S ) :   1.1070 B( 33-S , 34-C ) :   1.0254 B( 34-C , 43-H ) :   0.9502
B( 34-C , 44-H ) :   0.9503 B( 35-S , 36-C ) :   1.1652 B( 36-C , 37-S ) :   1.1647
B( 36-C , 38-C ) :   1.5387 B( 38-C , 39-S ) :   1.1320 B( 38-C , 42-S ) :   1.0896
B( 39-S , 40-C ) :   1.2056 B( 40-C , 41-C ) :   1.7177 B( 41-C , 42-S ) :   1.1931
B( 41-C , 46-H ) :   0.9297

Dispersion correction           -0.021904089
FINAL SINGLE POINT ENERGY     -4342.423410444029

DIPOLE MOMENT
-------------
                                X             Y             Z
Electronic contribution:     40.81975      -7.15790       5.64009
Nuclear contribution   :    -41.76298       7.44051      -6.05278
                        -----------------------------------------
Total Dipole Moment    :     -0.94323       0.28262      -0.41269
                        -----------------------------------------
Magnitude (a.u.)       :      1.06765
Magnitude (Debye)      :      2.71374

                             ****ORCA TERMINATED NORMALLY****
TOTAL RUN TIME: 0 days 0 hours 11 minutes 53 seconds 714 msec
