                         Program Version 4.0.0 -  RELEASE  -
|  1> #
|  2> !wB97X-D3 def2-TZVP def2/J RIJCOSX Grid5 FinalGrid6 TightSCF
|  3> %pal
|  4>  nprocs 24
|  5> end
|  6> %tddft
|  7>   Mode sTDDFT
|  8>   nroots 2
|  9>   Ethresh 10.0
| 10>   maxcore 5000
| 11>   triplets true
| 12> end
| 13> * xyz 0 1
| 14> C -4.33732965 -2.86105071 0.20113510
| 15> C -3.63571234 -1.66564130 0.06943791
| 16> C -4.35275859 -0.46290943 -0.07873006
| 17> C -5.77494607 -0.51859766 -0.07678367
| 18> C -6.48440439 -1.72285770 0.04872988
| 19> C -5.74301026 -2.89337828 0.18654190
| 20> C -3.99338030 0.94036979 -0.21146968
| 21> C -5.22537068 1.65837443 -0.26303321
| 22> N -6.27784265 0.76486198 -0.19859989
| 23> C -5.29561722 3.05688598 -0.34258829
| 24> C -4.09215339 3.75888683 -0.35456386
| 25> C -2.86660549 3.08357391 -0.30302611
| 26> C -2.77825946 1.67889965 -0.24963670
| 27> H -1.94761616 3.66470806 -0.33076643
| 28> H -7.25910814 1.01485940 -0.20349355
| 29> H -4.10012015 4.84367374 -0.40789857
| 30> H -2.54972741 -1.66804622 0.07822174
| 31> H -7.57097419 -1.73840582 0.04354727
| 32> H -6.25736227 -3.84548424 0.28660773
| 33> H -3.78847734 -3.79190984 0.31460962
| 34> S 3.24160525 -1.08879360 -0.39828789
| 35> C 2.33618523 0.36161639 0.06236670
| 36> N 3.09611765 1.31474960 0.58853314
| 37> N 4.41487255 0.97748451 0.66365634
| 38> C 4.68402040 -0.23642599 0.19753415
| 39> C 0.90835480 0.47779079 -0.12310576
| 40> N 0.15594338 -0.47726474 -0.65489995
| 41> N -1.16695158 -0.14380248 -0.73023193
| 42> C -1.44865258 1.06095598 -0.25562451
| 43> S -0.00523465 1.91948524 0.33744295
| 44> N 9.34282253 0.16964655 1.13569474
| 45> C 8.45311095 -0.70236880 0.62230370
| 46> C 7.16372023 -0.09133050 0.66697083
| 47> N 7.30213152 1.13215562 1.20447070
| 48> O 8.62127561 1.26025012 1.47563812
| 49> C 6.02151743 -0.81044720 0.17632350
| 50> C 6.29155303 -2.08553500 -0.31561030
| 51> N 7.53323455 -2.67258324 -0.35797897
| 52> C 8.59797541 -2.02112911 0.09143610
| 53> H 5.46707993 -2.69171612 -0.70648021
| 54> H -6.25163869 3.57122619 -0.38231726
| 55> H 9.57193318 -2.52047678 0.04182470
| 56> *
| 57> $new_job
| 58> #
| 59> !wB97X-D3 def2-TZVP def2/J RIJCOSX Grid5 FinalGrid6 TightSCF
| 60> %pal
| 61>  nprocs 24
| 62> end
| 63> %elprop
| 64>    dipole     true
| 65>    quadrupole true
| 66> end
| 67> %tddft
| 68>   Mode sTDDFT
| 69>   nroots 2
| 70>   Ethresh 10.0
| 71>   maxcore 5000
| 72> end
| 73> * xyz 0 1
| 74> C -4.33732965 -2.86105071 0.20113510
| 75> C -3.63571234 -1.66564130 0.06943791
| 76> C -4.35275859 -0.46290943 -0.07873006
| 77> C -5.77494607 -0.51859766 -0.07678367
| 78> C -6.48440439 -1.72285770 0.04872988
| 79> C -5.74301026 -2.89337828 0.18654190
| 80> C -3.99338030 0.94036979 -0.21146968
| 81> C -5.22537068 1.65837443 -0.26303321
| 82> N -6.27784265 0.76486198 -0.19859989
| 83> C -5.29561722 3.05688598 -0.34258829
| 84> C -4.09215339 3.75888683 -0.35456386
| 85> C -2.86660549 3.08357391 -0.30302611
| 86> C -2.77825946 1.67889965 -0.24963670
| 87> H -1.94761616 3.66470806 -0.33076643
| 88> H -7.25910814 1.01485940 -0.20349355
| 89> H -4.10012015 4.84367374 -0.40789857
| 90> H -2.54972741 -1.66804622 0.07822174
| 91> H -7.57097419 -1.73840582 0.04354727
| 92> H -6.25736227 -3.84548424 0.28660773
| 93> H -3.78847734 -3.79190984 0.31460962
| 94> S 3.24160525 -1.08879360 -0.39828789
| 95> C 2.33618523 0.36161639 0.06236670
| 96> N 3.09611765 1.31474960 0.58853314
| 97> N 4.41487255 0.97748451 0.66365634
| 98> C 4.68402040 -0.23642599 0.19753415
| 99> C 0.90835480 0.47779079 -0.12310576
|100> N 0.15594338 -0.47726474 -0.65489995
|101> N -1.16695158 -0.14380248 -0.73023193
|102> C -1.44865258 1.06095598 -0.25562451
|103> S -0.00523465 1.91948524 0.33744295
|104> N 9.34282253 0.16964655 1.13569474
|105> C 8.45311095 -0.70236880 0.62230370
|106> C 7.16372023 -0.09133050 0.66697083
|107> N 7.30213152 1.13215562 1.20447070
|108> O 8.62127561 1.26025012 1.47563812
|109> C 6.02151743 -0.81044720 0.17632350
|110> C 6.29155303 -2.08553500 -0.31561030
|111> N 7.53323455 -2.67258324 -0.35797897
|112> C 8.59797541 -2.02112911 0.09143610
|113> H 5.46707993 -2.69171612 -0.70648021
|114> H -6.25163869 3.57122619 -0.38231726
|115> H 9.57193318 -2.52047678 0.04182470
|116> *
|117>
|118>                          ****END OF INPUT****
 Total Charge           Charge          ....    0
 Multiplicity           Mult            ....    1
 Number of Electrons    NEL             ....  232
Dispersion correction           -0.018671207
FINAL SINGLE POINT ENERGY     -2115.840105110380

CARTESIAN COORDINATES (ANGSTROEM)
---------------------------------
  C     -4.337330   -2.861051    0.201135
  C     -3.635712   -1.665641    0.069438
  C     -4.352759   -0.462909   -0.078730
  C     -5.774946   -0.518598   -0.076784
  C     -6.484404   -1.722858    0.048730
  C     -5.743010   -2.893378    0.186542
  C     -3.993380    0.940370   -0.211470
  C     -5.225371    1.658374   -0.263033
  N     -6.277843    0.764862   -0.198600
  C     -5.295617    3.056886   -0.342588
  C     -4.092153    3.758887   -0.354564
  C     -2.866605    3.083574   -0.303026
  C     -2.778259    1.678900   -0.249637
  H     -1.947616    3.664708   -0.330766
  H     -7.259108    1.014859   -0.203494
  H     -4.100120    4.843674   -0.407899
  H     -2.549727   -1.668046    0.078222
  H     -7.570974   -1.738406    0.043547
  H     -6.257362   -3.845484    0.286608
  H     -3.788477   -3.791910    0.314610
  S      3.241605   -1.088794   -0.398288
  C      2.336185    0.361616    0.062367
  N      3.096118    1.314750    0.588533
  N      4.414873    0.977485    0.663656
  C      4.684020   -0.236426    0.197534
  C      0.908355    0.477791   -0.123106
  N      0.155943   -0.477265   -0.654900
  N     -1.166952   -0.143802   -0.730232
  C     -1.448653    1.060956   -0.255625
  S     -0.005235    1.919485    0.337443
  N      9.342823    0.169647    1.135695
  C      8.453111   -0.702369    0.622304
  C      7.163720   -0.091330    0.666971
  N      7.302132    1.132156    1.204471
  O      8.621276    1.260250    1.475638
  C      6.021517   -0.810447    0.176323
  C      6.291553   -2.085535   -0.315610
  N      7.533235   -2.672583   -0.357979
  C      8.597975   -2.021129    0.091436
  H      5.467080   -2.691716   -0.706480
  H     -6.251639    3.571226   -0.382317
  H      9.571933   -2.520477    0.041825

 Multiplicity           Mult            ....    1
 Number of Electrons    NEL             ....  232
 Basis Dimension        Dim             .... 1064

ORBITAL ENERGIES
----------------

  NO   OCC          E(Eh)            E(eV)
   0   2.0000     -89.022171     -2422.4164
   1   2.0000     -89.014750     -2422.2145
   2   2.0000     -19.400104      -527.9037
   3   2.0000     -14.528461      -395.3395
   4   2.0000     -14.519790      -395.1036
   5   2.0000     -14.483971      -394.1289
   6   2.0000     -14.481475      -394.0610
   7   2.0000     -14.480157      -394.0251
   8   2.0000     -14.474819      -393.8799
   9   2.0000     -14.470754      -393.7692
  10   2.0000     -14.469983      -393.7482
  11   2.0000     -10.392771      -282.8017
  12   2.0000     -10.390529      -282.7407
  13   2.0000     -10.386395      -282.6282
  14   2.0000     -10.381830      -282.5040
  15   2.0000     -10.376645      -282.3629
  16   2.0000     -10.366419      -282.0846
  17   2.0000     -10.365259      -282.0530
  18   2.0000     -10.362842      -281.9873
  19   2.0000     -10.358190      -281.8607
  20   2.0000     -10.339086      -281.3408
  21   2.0000     -10.330094      -281.0961
  22   2.0000     -10.325638      -280.9749
  23   2.0000     -10.309847      -280.5452
  24   2.0000     -10.303926      -280.3841
  25   2.0000     -10.300452      -280.2895
  26   2.0000     -10.299813      -280.2722
  27   2.0000     -10.293140      -280.0906
  28   2.0000     -10.288192      -279.9559
  29   2.0000     -10.287243      -279.9301
  30   2.0000     -10.281682      -279.7788
  31   2.0000     -10.274740      -279.5899
  32   2.0000      -8.118340      -220.9113
  33   2.0000      -8.110927      -220.7095
  34   2.0000      -6.071401      -165.2112
  35   2.0000      -6.067577      -165.1072
  36   2.0000      -6.065397      -165.0478
  37   2.0000      -6.064013      -165.0102
  38   2.0000      -6.060076      -164.9031
  39   2.0000      -6.058025      -164.8472
  40   2.0000      -1.345096       -36.6019
  41   2.0000      -1.168177       -31.7877
  42   2.0000      -1.158200       -31.5162
  43   2.0000      -1.112078       -30.2612
  44   2.0000      -1.102877       -30.0108
  45   2.0000      -1.053158       -28.6579
  46   2.0000      -1.017207       -27.6796
  47   2.0000      -1.001002       -27.2386
  48   2.0000      -0.989071       -26.9140
  49   2.0000      -0.972593       -26.4656
  50   2.0000      -0.967051       -26.3148
  51   2.0000      -0.945202       -25.7202
  52   2.0000      -0.925282       -25.1782
  53   2.0000      -0.914136       -24.8749
  54   2.0000      -0.906420       -24.6649
  55   2.0000      -0.880000       -23.9460
  56   2.0000      -0.851360       -23.1667
  57   2.0000      -0.846899       -23.0453
  58   2.0000      -0.845511       -23.0075
  59   2.0000      -0.804519       -21.8921
  60   2.0000      -0.788076       -21.4446
  61   2.0000      -0.781384       -21.2625
  62   2.0000      -0.765347       -20.8262
  63   2.0000      -0.736115       -20.0307
  64   2.0000      -0.728942       -19.8355
  65   2.0000      -0.719092       -19.5675
  66   2.0000      -0.709346       -19.3023
  67   2.0000      -0.688088       -18.7238
  68   2.0000      -0.677704       -18.4413
  69   2.0000      -0.672307       -18.2944
  70   2.0000      -0.658947       -17.9309
  71   2.0000      -0.644075       -17.5262
  72   2.0000      -0.640012       -17.4156
  73   2.0000      -0.629588       -17.1319
  74   2.0000      -0.621498       -16.9118
  75   2.0000      -0.615925       -16.7602
  76   2.0000      -0.607102       -16.5201
  77   2.0000      -0.584467       -15.9041
  78   2.0000      -0.580122       -15.7859
  79   2.0000      -0.574493       -15.6327
  80   2.0000      -0.569584       -15.4992
  81   2.0000      -0.563702       -15.3391
  82   2.0000      -0.559258       -15.2182
  83   2.0000      -0.552205       -15.0263
  84   2.0000      -0.550438       -14.9782
  85   2.0000      -0.543018       -14.7763
  86   2.0000      -0.536711       -14.6046
  87   2.0000      -0.534256       -14.5378
  88   2.0000      -0.530778       -14.4432
  89   2.0000      -0.526300       -14.3213
  90   2.0000      -0.523776       -14.2527
  91   2.0000      -0.514362       -13.9965
  92   2.0000      -0.482998       -13.1430
  93   2.0000      -0.478570       -13.0225
  94   2.0000      -0.472663       -12.8618
  95   2.0000      -0.469182       -12.7671
  96   2.0000      -0.460163       -12.5217
  97   2.0000      -0.450390       -12.2557
  98   2.0000      -0.448501       -12.2043
  99   2.0000      -0.440488       -11.9863
 100   2.0000      -0.438915       -11.9435
 101   2.0000      -0.427421       -11.6307
 102   2.0000      -0.424799       -11.5594
 103   2.0000      -0.424364       -11.5475
 104   2.0000      -0.411406       -11.1949
 105   2.0000      -0.409673       -11.1478
 106   2.0000      -0.401728       -10.9316
 107   2.0000      -0.397980       -10.8296
 108   2.0000      -0.390017       -10.6129
 109   2.0000      -0.383429       -10.4336
 110   2.0000      -0.378648       -10.3035
 111   2.0000      -0.372789       -10.1441
 112   2.0000      -0.349999        -9.5240
 113   2.0000      -0.330784        -9.0011
 114   2.0000      -0.304843        -8.2952
 115   2.0000      -0.294918        -8.0251
 116   0.0000      -0.067092        -1.8257
 117   0.0000      -0.032525        -0.8850
 118   0.0000       0.003468         0.0944
 119   0.0000       0.032126         0.8742
 120   0.0000       0.040859         1.1118

MULLIKEN ATOMIC CHARGES
-----------------------
   0 C :   -0.174246
   1 C :   -0.128918
   2 C :   -0.020355
   3 C :    0.167289
   4 C :   -0.233612
   5 C :   -0.078461
   6 C :   -0.034502
   7 C :    0.186136
   8 N :   -0.302310
   9 C :   -0.221932
  10 C :   -0.097795
  11 C :   -0.274773
  12 C :    0.115926
  13 H :    0.131407
  14 H :    0.237746
  15 H :    0.128962
  16 H :    0.154652
  17 H :    0.114122
  18 H :    0.123951
  19 H :    0.119491
  20 S :    0.061238
  21 C :    0.116172
  22 N :   -0.187673
  23 N :   -0.097090
  24 C :    0.147891
  25 C :    0.122925
  26 N :   -0.167828
  27 N :   -0.191272
  28 C :    0.160348
  29 S :    0.072530
  30 N :   -0.067726
  31 C :    0.000300
  32 C :    0.021345
  33 N :   -0.048619
  34 O :    0.019014
  35 C :   -0.049281
  36 C :   -0.034598
  37 N :   -0.256595
  38 C :    0.018455
  39 H :    0.153913
  40 H :    0.123579
  41 H :    0.170197
Sum of atomic charges:   -0.0000000

LOEWDIN ATOMIC CHARGES
----------------------
   0 C :   -0.157365
   1 C :   -0.092110
   2 C :   -0.078194
   3 C :   -0.143969
   4 C :   -0.135277
   5 C :   -0.137945
   6 C :   -0.027782
   7 C :   -0.142660
   8 N :    0.202277
   9 C :   -0.115644
  10 C :   -0.140195
  11 C :   -0.122052
  12 C :   -0.116939
  13 H :    0.145712
  14 H :    0.194034
  15 H :    0.148499
  16 H :    0.153540
  17 H :    0.142937
  18 H :    0.144941
  19 H :    0.144196
  20 S :    0.738712
  21 C :   -0.449884
  22 N :    0.052176
  23 N :    0.069208
  24 C :   -0.394730
  25 C :   -0.462315
  26 N :    0.046786
  27 N :    0.048669
  28 C :   -0.370622
  29 S :    0.745013
  30 N :    0.055430
  31 C :   -0.238261
  32 C :   -0.189313
  33 N :    0.068219
  34 O :    0.238570
  35 C :   -0.130471
  36 C :   -0.143875
  37 N :    0.132577
  38 C :   -0.128393
  39 H :    0.147368
  40 H :    0.146411
  41 H :    0.152719

  Mayer bond orders larger than 0.1
B(  0-C ,  1-C ) :   1.5385 B(  0-C ,  5-C ) :   1.3520 B(  0-C , 19-H ) :   0.9849
B(  1-C ,  2-C ) :   1.2684 B(  1-C , 16-H ) :   0.9369 B(  2-C ,  3-C ) :   1.3575
B(  2-C ,  6-C ) :   1.0899 B(  3-C ,  4-C ) :   1.3079 B(  3-C ,  8-N ) :   1.1156
B(  4-C ,  5-C ) :   1.4852 B(  4-C , 17-H ) :   0.9742 B(  5-C , 18-H ) :   0.9792
B(  6-C ,  7-C ) :   1.3213 B(  6-C , 12-C ) :   1.2516 B(  7-C ,  8-N ) :   1.1544
B(  7-C ,  9-C ) :   1.2941 B(  8-N , 14-H ) :   0.9122 B(  9-C , 10-C ) :   1.4696
B(  9-C , 40-H ) :   0.9687 B( 10-C , 11-C ) :   1.4205 B( 10-C , 15-H ) :   0.9798
B( 11-C , 12-C ) :   1.3999 B( 11-C , 13-H ) :   0.9592 B( 12-C , 28-C ) :   0.9553
B( 20-S , 21-C ) :   1.3172 B( 20-S , 24-C ) :   1.2859 B( 21-C , 22-N ) :   1.6921
B( 21-C , 25-C ) :   0.9395 B( 22-N , 23-N ) :   1.1472 B( 23-N , 24-C ) :   1.7102
B( 24-C , 35-C ) :   0.9992 B( 25-C , 26-N ) :   1.6972 B( 25-C , 29-S ) :   1.3075
B( 26-N , 27-N ) :   1.1287 B( 27-N , 28-C ) :   1.6350 B( 28-C , 29-S ) :   1.2901
B( 30-N , 31-C ) :   1.5845 B( 30-N , 33-N ) :   0.2023 B( 30-N , 34-O ) :   1.0864
B( 31-C , 32-C ) :   1.2261 B( 31-C , 38-C ) :   1.1123 B( 32-C , 33-N ) :   1.5743
B( 32-C , 35-C ) :   1.1215 B( 33-N , 34-O ) :   1.0302 B( 35-C , 36-C ) :   1.5492
B( 36-C , 37-N ) :   1.2979 B( 36-C , 39-H ) :   0.9734 B( 37-N , 38-C ) :   1.6844
B( 38-C , 41-H ) :   0.9692

Dispersion correction           -0.018671207
FINAL SINGLE POINT ENERGY     -2115.840104992069

DIPOLE MOMENT
-------------
                                X             Y             Z
Electronic contribution:     29.95392       4.00536       1.74977
Nuclear contribution   :    -31.65402      -4.17537      -1.99095
                        -----------------------------------------
Total Dipole Moment    :     -1.70010      -0.17001      -0.24118
                        -----------------------------------------
Magnitude (a.u.)       :      1.72552
Magnitude (Debye)      :      4.38592

                             ****ORCA TERMINATED NORMALLY****
TOTAL RUN TIME: 0 days 0 hours 11 minutes 24 seconds 740 msec
