                         Program Version 4.0.0 -  RELEASE  -
|  1> #
|  2> !wB97X-D3 def2-TZVP def2/J RIJCOSX Grid5 FinalGrid6 TightSCF
|  3> %pal
|  4>  nprocs 24
|  5> end
|  6> %tddft
|  7>   Mode sTDDFT
|  8>   nroots 2
|  9>   Ethresh 10.0
| 10>   maxcore 5000
| 11>   triplets true
| 12> end
| 13> * xyz 0 1
| 14> C 10.33293565 2.21214881 2.62415895
| 15> C 9.07821796 2.00467889 2.10620290
| 16> C 8.85362767 0.96042585 1.15211292
| 17> C 9.96221982 0.12715362 0.75420560
| 18> C 11.25467685 0.37908772 1.31908361
| 19> C 11.42865969 1.39474781 2.22637702
| 20> N 7.61096030 0.77166556 0.64243918
| 21> C 7.44486972 -0.22272738 -0.26040460
| 22> C 8.55270172 -1.07755159 -0.63259350
| 23> N 9.79638105 -0.89006901 -0.12569856
| 24> C 8.33042124 -2.15153994 -1.55273775
| 25> C 7.07550730 -2.36674522 -2.06786452
| 26> C 5.98802065 -1.52791702 -1.71420936
| 27> C 6.13853885 -0.46147820 -0.84144151
| 28> H 5.01694552 -1.71926311 -2.16364918
| 29> H 6.90372510 -3.18247028 -2.76557471
| 30> H 9.16535806 -2.78811069 -1.83276754
| 31> H 12.41044187 1.58398427 2.65312866
| 32> H 8.24236138 2.63054703 2.40920182
| 33> H 10.50163345 3.00716422 3.34611014
| 34> S 0.22348553 2.12818170 0.22673020
| 35> C 1.25094895 0.76037565 -0.18871955
| 36> C 0.48897725 -0.36729647 -0.41546866
| 37> C -0.92385252 -0.15162223 -0.26041380
| 38> C -1.21838938 1.15867198 0.08957993
| 39> C 2.68963519 0.89712860 -0.25865531
| 40> C 3.62489273 -0.07117215 -0.56428066
| 41> C 4.98125901 0.40021591 -0.52726968
| 42> C 5.05588474 1.74305959 -0.20046425
| 43> S 3.47845485 2.43562730 0.06567159
| 44> H 3.35391208 -1.09890835 -0.78185926
| 45> H 0.91912096 -1.32668984 -0.68614497
| 46> H 5.95290845 2.34433391 -0.13500659
| 47> H -2.20642808 1.56787430 0.26010579
| 48> C -8.25198756 -2.37436940 -0.71268467
| 49> C -9.61534003 -2.54982012 -0.48230829
| 50> C -10.24260665 -1.87060352 0.56366801
| 51> C -9.49709278 -1.02210094 1.38497991
| 52> C -8.13559162 -0.83803652 1.15260164
| 53> C -7.49727028 -1.50298443 0.09037102
| 54> C -6.03581514 -1.34884120 -0.16222756
| 55> C -5.36106602 -0.05471512 -0.02882900
| 56> N -4.03382074 0.05092316 -0.08255023
| 57> C -3.32331196 -1.09786938 -0.34227212
| 58> C -4.00049619 -2.34919869 -0.59633871
| 59> N -5.37119372 -2.45757194 -0.47614398
| 60> C -1.92361460 -1.19021346 -0.44907489
| 61> S -1.48341336 -2.83106756 -0.87407810
| 62> C -3.12842735 -3.38959638 -0.90609966
| 63> C -6.11307548 1.22154606 0.12974690
| 64> C -5.59362407 2.22985980 0.95978834
| 65> C -6.26310467 3.44293311 1.10854799
| 66> C -7.45421052 3.67505549 0.41817579
| 67> C -7.96643217 2.69103663 -0.43013857
| 68> C -7.30353560 1.47410970 -0.57564241
| 69> H -7.70101627 0.72246083 -1.25300239
| 70> H -8.88443149 2.87384008 -0.98283993
| 71> H -7.97650956 4.62123266 0.53369509
| 72> H -5.85510286 4.21003777 1.76211948
| 73> H -4.66400502 2.04706086 1.49358302
| 74> H -7.56026244 -0.18843880 1.80762227
| 75> H -9.97781055 -0.50394475 2.21084086
| 76> H -11.30568877 -2.00802237 0.74379779
| 77> H -10.19006408 -3.21943418 -1.11743173
| 78> H -7.75967998 -2.90469277 -1.52386032
| 79> H 12.09228180 -0.24507290 1.01793837
| 80> H -3.38139388 -4.41731297 -1.13223825
| 81> *
| 82> $new_job
| 83> #
| 84> !wB97X-D3 def2-TZVP def2/J RIJCOSX Grid5 FinalGrid6 TightSCF
| 85> %pal
| 86>  nprocs 24
| 87> end
| 88> %elprop
| 89>    dipole     true
| 90>    quadrupole true
| 91> end
| 92> %tddft
| 93>   Mode sTDDFT
| 94>   nroots 2
| 95>   Ethresh 10.0
| 96>   maxcore 5000
| 97> end
| 98> * xyz 0 1
| 99> C 10.33293565 2.21214881 2.62415895
|100> C 9.07821796 2.00467889 2.10620290
|101> C 8.85362767 0.96042585 1.15211292
|102> C 9.96221982 0.12715362 0.75420560
|103> C 11.25467685 0.37908772 1.31908361
|104> C 11.42865969 1.39474781 2.22637702
|105> N 7.61096030 0.77166556 0.64243918
|106> C 7.44486972 -0.22272738 -0.26040460
|107> C 8.55270172 -1.07755159 -0.63259350
|108> N 9.79638105 -0.89006901 -0.12569856
|109> C 8.33042124 -2.15153994 -1.55273775
|110> C 7.07550730 -2.36674522 -2.06786452
|111> C 5.98802065 -1.52791702 -1.71420936
|112> C 6.13853885 -0.46147820 -0.84144151
|113> H 5.01694552 -1.71926311 -2.16364918
|114> H 6.90372510 -3.18247028 -2.76557471
|115> H 9.16535806 -2.78811069 -1.83276754
|116> H 12.41044187 1.58398427 2.65312866
|117> H 8.24236138 2.63054703 2.40920182
|118> H 10.50163345 3.00716422 3.34611014
|119> S 0.22348553 2.12818170 0.22673020
|120> C 1.25094895 0.76037565 -0.18871955
|121> C 0.48897725 -0.36729647 -0.41546866
|122> C -0.92385252 -0.15162223 -0.26041380
|123> C -1.21838938 1.15867198 0.08957993
|124> C 2.68963519 0.89712860 -0.25865531
|125> C 3.62489273 -0.07117215 -0.56428066
|126> C 4.98125901 0.40021591 -0.52726968
|127> C 5.05588474 1.74305959 -0.20046425
|128> S 3.47845485 2.43562730 0.06567159
|129> H 3.35391208 -1.09890835 -0.78185926
|130> H 0.91912096 -1.32668984 -0.68614497
|131> H 5.95290845 2.34433391 -0.13500659
|132> H -2.20642808 1.56787430 0.26010579
|133> C -8.25198756 -2.37436940 -0.71268467
|134> C -9.61534003 -2.54982012 -0.48230829
|135> C -10.24260665 -1.87060352 0.56366801
|136> C -9.49709278 -1.02210094 1.38497991
|137> C -8.13559162 -0.83803652 1.15260164
|138> C -7.49727028 -1.50298443 0.09037102
|139> C -6.03581514 -1.34884120 -0.16222756
|140> C -5.36106602 -0.05471512 -0.02882900
|141> N -4.03382074 0.05092316 -0.08255023
|142> C -3.32331196 -1.09786938 -0.34227212
|143> C -4.00049619 -2.34919869 -0.59633871
|144> N -5.37119372 -2.45757194 -0.47614398
|145> C -1.92361460 -1.19021346 -0.44907489
|146> S -1.48341336 -2.83106756 -0.87407810
|147> C -3.12842735 -3.38959638 -0.90609966
|148> C -6.11307548 1.22154606 0.12974690
|149> C -5.59362407 2.22985980 0.95978834
|150> C -6.26310467 3.44293311 1.10854799
|151> C -7.45421052 3.67505549 0.41817579
|152> C -7.96643217 2.69103663 -0.43013857
|153> C -7.30353560 1.47410970 -0.57564241
|154> H -7.70101627 0.72246083 -1.25300239
|155> H -8.88443149 2.87384008 -0.98283993
|156> H -7.97650956 4.62123266 0.53369509
|157> H -5.85510286 4.21003777 1.76211948
|158> H -4.66400502 2.04706086 1.49358302
|159> H -7.56026244 -0.18843880 1.80762227
|160> H -9.97781055 -0.50394475 2.21084086
|161> H -11.30568877 -2.00802237 0.74379779
|162> H -10.19006408 -3.21943418 -1.11743173
|163> H -7.75967998 -2.90469277 -1.52386032
|164> H 12.09228180 -0.24507290 1.01793837
|165> H -3.38139388 -4.41731297 -1.13223825
|166> *
|167>
|168>                          ****END OF INPUT****
 Total Charge           Charge          ....    0
 Multiplicity           Mult            ....    1
 Number of Electrons    NEL             ....  326
Dispersion correction           -0.034126823
FINAL SINGLE POINT ENERGY     -2874.978169868742

CARTESIAN COORDINATES (ANGSTROEM)
---------------------------------
  C     10.332936    2.212149    2.624159
  C      9.078218    2.004679    2.106203
  C      8.853628    0.960426    1.152113
  C      9.962220    0.127154    0.754206
  C     11.254677    0.379088    1.319084
  C     11.428660    1.394748    2.226377
  N      7.610960    0.771666    0.642439
  C      7.444870   -0.222727   -0.260405
  C      8.552702   -1.077552   -0.632594
  N      9.796381   -0.890069   -0.125699
  C      8.330421   -2.151540   -1.552738
  C      7.075507   -2.366745   -2.067865
  C      5.988021   -1.527917   -1.714209
  C      6.138539   -0.461478   -0.841442
  H      5.016946   -1.719263   -2.163649
  H      6.903725   -3.182470   -2.765575
  H      9.165358   -2.788111   -1.832768
  H     12.410442    1.583984    2.653129
  H      8.242361    2.630547    2.409202
  H     10.501633    3.007164    3.346110
  S      0.223486    2.128182    0.226730
  C      1.250949    0.760376   -0.188720
  C      0.488977   -0.367296   -0.415469
  C     -0.923853   -0.151622   -0.260414
  C     -1.218389    1.158672    0.089580
  C      2.689635    0.897129   -0.258655
  C      3.624893   -0.071172   -0.564281
  C      4.981259    0.400216   -0.527270
  C      5.055885    1.743060   -0.200464
  S      3.478455    2.435627    0.065672
  H      3.353912   -1.098908   -0.781859
  H      0.919121   -1.326690   -0.686145
  H      5.952908    2.344334   -0.135007
  H     -2.206428    1.567874    0.260106
  C     -8.251988   -2.374369   -0.712685
  C     -9.615340   -2.549820   -0.482308
  C    -10.242607   -1.870604    0.563668
  C     -9.497093   -1.022101    1.384980
  C     -8.135592   -0.838037    1.152602
  C     -7.497270   -1.502984    0.090371
  C     -6.035815   -1.348841   -0.162228
  C     -5.361066   -0.054715   -0.028829
  N     -4.033821    0.050923   -0.082550
  C     -3.323312   -1.097869   -0.342272
  C     -4.000496   -2.349199   -0.596339
  N     -5.371194   -2.457572   -0.476144
  C     -1.923615   -1.190213   -0.449075
  S     -1.483413   -2.831068   -0.874078
  C     -3.128427   -3.389596   -0.906100
  C     -6.113075    1.221546    0.129747
  C     -5.593624    2.229860    0.959788
  C     -6.263105    3.442933    1.108548
  C     -7.454211    3.675055    0.418176
  C     -7.966432    2.691037   -0.430139
  C     -7.303536    1.474110   -0.575642
  H     -7.701016    0.722461   -1.253002
  H     -8.884431    2.873840   -0.982840
  H     -7.976510    4.621233    0.533695
  H     -5.855103    4.210038    1.762119
  H     -4.664005    2.047061    1.493583
  H     -7.560262   -0.188439    1.807622
  H     -9.977811   -0.503945    2.210841
  H    -11.305689   -2.008022    0.743798
  H    -10.190064   -3.219434   -1.117432
  H     -7.759680   -2.904693   -1.523860
  H     12.092282   -0.245073    1.017938
  H     -3.381394   -4.417313   -1.132238

 Multiplicity           Mult            ....    1
 Number of Electrons    NEL             ....  326
 Basis Dimension        Dim             .... 1545

ORBITAL ENERGIES
----------------

  NO   OCC          E(Eh)            E(eV)
   0   2.0000     -89.001813     -2421.8625
   1   2.0000     -88.982982     -2421.3500
   2   2.0000     -88.981668     -2421.3143
   3   2.0000     -14.447310      -393.1313
   4   2.0000     -14.445975      -393.0950
   5   2.0000     -14.445907      -393.0931
   6   2.0000     -14.445713      -393.0878
   7   2.0000     -10.351482      -281.6781
   8   2.0000     -10.350607      -281.6543
   9   2.0000     -10.341245      -281.3996
  10   2.0000     -10.338603      -281.3277
  11   2.0000     -10.338356      -281.3210
  12   2.0000     -10.337581      -281.2999
  13   2.0000     -10.334506      -281.2162
  14   2.0000     -10.330798      -281.1153
  15   2.0000     -10.328570      -281.0547
  16   2.0000     -10.328328      -281.0481
  17   2.0000     -10.327349      -281.0214
  18   2.0000     -10.319419      -280.8057
  19   2.0000     -10.314963      -280.6844
  20   2.0000     -10.311372      -280.5867
  21   2.0000     -10.311348      -280.5860
  22   2.0000     -10.309300      -280.5303
  23   2.0000     -10.304402      -280.3970
  24   2.0000     -10.302824      -280.3541
  25   2.0000     -10.302487      -280.3449
  26   2.0000     -10.301984      -280.3312
  27   2.0000     -10.301425      -280.3160
  28   2.0000     -10.301384      -280.3149
  29   2.0000     -10.300556      -280.2924
  30   2.0000     -10.298707      -280.2421
  31   2.0000     -10.298145      -280.2268
  32   2.0000     -10.295685      -280.1598
  33   2.0000     -10.293433      -280.0985
  34   2.0000     -10.293020      -280.0873
  35   2.0000     -10.292073      -280.0615
  36   2.0000     -10.291839      -280.0552
  37   2.0000     -10.291613      -280.0490
  38   2.0000     -10.291609      -280.0489
  39   2.0000     -10.290554      -280.0202
  40   2.0000     -10.289988      -280.0048
  41   2.0000     -10.289923      -280.0030
  42   2.0000     -10.289874      -280.0017
  43   2.0000     -10.288868      -279.9743
  44   2.0000     -10.288588      -279.9667
  45   2.0000      -8.097301      -220.3388
  46   2.0000      -8.079339      -219.8500
  47   2.0000      -8.078134      -219.8172
  48   2.0000      -6.050182      -164.6338
  49   2.0000      -6.046201      -164.5255
  50   2.0000      -6.045274      -164.5003
  51   2.0000      -6.032660      -164.1570
  52   2.0000      -6.031427      -164.1235
  53   2.0000      -6.028403      -164.0412
  54   2.0000      -6.027189      -164.0081
  55   2.0000      -6.026474      -163.9887
  56   2.0000      -6.025290      -163.9565
  57   2.0000      -1.101221       -29.9658
  58   2.0000      -1.100944       -29.9582
  59   2.0000      -1.033289       -28.1172
  60   2.0000      -1.031027       -28.0557
  61   2.0000      -1.017437       -27.6859
  62   2.0000      -1.006607       -27.3912
  63   2.0000      -0.995377       -27.0856
  64   2.0000      -0.986526       -26.8447
  65   2.0000      -0.980766       -26.6880
  66   2.0000      -0.979022       -26.6405
  67   2.0000      -0.961341       -26.1594
  68   2.0000      -0.911786       -24.8110
  69   2.0000      -0.908058       -24.7095
  70   2.0000      -0.893341       -24.3090
  71   2.0000      -0.880967       -23.9723
  72   2.0000      -0.878567       -23.9070
  73   2.0000      -0.871876       -23.7250
  74   2.0000      -0.870426       -23.6855
  75   2.0000      -0.868284       -23.6272
  76   2.0000      -0.867951       -23.6181
  77   2.0000      -0.847452       -23.0603
  78   2.0000      -0.837149       -22.7800
  79   2.0000      -0.831154       -22.6168
  80   2.0000      -0.808467       -21.9995
  81   2.0000      -0.799734       -21.7619
  82   2.0000      -0.783738       -21.3266
  83   2.0000      -0.762792       -20.7566
  84   2.0000      -0.754306       -20.5257
  85   2.0000      -0.733522       -19.9601
  86   2.0000      -0.727390       -19.7933
  87   2.0000      -0.721523       -19.6336
  88   2.0000      -0.719301       -19.5732
  89   2.0000      -0.713252       -19.4086
  90   2.0000      -0.706219       -19.2172
  91   2.0000      -0.703041       -19.1307
  92   2.0000      -0.689878       -18.7725
  93   2.0000      -0.676804       -18.4168
  94   2.0000      -0.668313       -18.1857
  95   2.0000      -0.658253       -17.9120
  96   2.0000      -0.652279       -17.7494
  97   2.0000      -0.640574       -17.4309
  98   2.0000      -0.638467       -17.3736
  99   2.0000      -0.632400       -17.2085
 100   2.0000      -0.630598       -17.1594
 101   2.0000      -0.613223       -16.6866
 102   2.0000      -0.602110       -16.3843
 103   2.0000      -0.594144       -16.1675
 104   2.0000      -0.586706       -15.9651
 105   2.0000      -0.584316       -15.9001
 106   2.0000      -0.577083       -15.7032
 107   2.0000      -0.571786       -15.5591
 108   2.0000      -0.568261       -15.4632
 109   2.0000      -0.559162       -15.2156
 110   2.0000      -0.555938       -15.1279
 111   2.0000      -0.552894       -15.0450
 112   2.0000      -0.550925       -14.9914
 113   2.0000      -0.544108       -14.8059
 114   2.0000      -0.542782       -14.7698
 115   2.0000      -0.541003       -14.7214
 116   2.0000      -0.537218       -14.6185
 117   2.0000      -0.527055       -14.3419
 118   2.0000      -0.525687       -14.3047
 119   2.0000      -0.525268       -14.2933
 120   2.0000      -0.518187       -14.1006
 121   2.0000      -0.516335       -14.0502
 122   2.0000      -0.513720       -13.9790
 123   2.0000      -0.506966       -13.7952
 124   2.0000      -0.501078       -13.6350
 125   2.0000      -0.495007       -13.4698
 126   2.0000      -0.492947       -13.4138
 127   2.0000      -0.489224       -13.3125
 128   2.0000      -0.486341       -13.2340
 129   2.0000      -0.484460       -13.1828
 130   2.0000      -0.481732       -13.1086
 131   2.0000      -0.475115       -12.9285
 132   2.0000      -0.472275       -12.8513
 133   2.0000      -0.462146       -12.5756
 134   2.0000      -0.460150       -12.5213
 135   2.0000      -0.458229       -12.4690
 136   2.0000      -0.455676       -12.3996
 137   2.0000      -0.450633       -12.2623
 138   2.0000      -0.448546       -12.2056
 139   2.0000      -0.446855       -12.1595
 140   2.0000      -0.446678       -12.1547
 141   2.0000      -0.443314       -12.0632
 142   2.0000      -0.441932       -12.0256
 143   2.0000      -0.437889       -11.9156
 144   2.0000      -0.430512       -11.7148
 145   2.0000      -0.425691       -11.5836
 146   2.0000      -0.417808       -11.3691
 147   2.0000      -0.414012       -11.2658
 148   2.0000      -0.387057       -10.5323
 149   2.0000      -0.371563       -10.1107
 150   2.0000      -0.367492       -10.0000
 151   2.0000      -0.363547        -9.8926
 152   2.0000      -0.358482        -9.7548
 153   2.0000      -0.349184        -9.5018
 154   2.0000      -0.347628        -9.4594
 155   2.0000      -0.347316        -9.4510
 156   2.0000      -0.340692        -9.2707
 157   2.0000      -0.339680        -9.2432
 158   2.0000      -0.337305        -9.1785
 159   2.0000      -0.311467        -8.4755
 160   2.0000      -0.306417        -8.3380
 161   2.0000      -0.292448        -7.9579
 162   2.0000      -0.270935        -7.3725
 163   0.0000      -0.042248        -1.1496
 164   0.0000      -0.035688        -0.9711
 165   0.0000       0.009039         0.2460
 166   0.0000       0.021104         0.5743
 167   0.0000       0.030618         0.8332

MULLIKEN ATOMIC CHARGES
-----------------------
   0 C :   -0.065682
   1 C :   -0.286134
   2 C :    0.212160
   3 C :    0.188109
   4 C :   -0.252612
   5 C :   -0.074239
   6 N :   -0.317645
   7 C :    0.183812
   8 C :    0.187242
   9 N :   -0.246443
  10 C :   -0.259912
  11 C :   -0.081728
  12 C :   -0.165107
  13 C :   -0.000502
  14 H :    0.134518
  15 H :    0.128745
  16 H :    0.130136
  17 H :    0.132908
  18 H :    0.136540
  19 H :    0.133213
  20 S :    0.062096
  21 C :    0.044024
  22 C :   -0.247472
  23 C :    0.134074
  24 C :   -0.250879
  25 C :    0.048773
  26 C :   -0.293437
  27 C :    0.127715
  28 C :   -0.206745
  29 S :    0.057307
  30 H :    0.145777
  31 H :    0.150360
  32 H :    0.171803
  33 H :    0.192853
  34 C :   -0.207306
  35 C :   -0.131280
  36 C :   -0.105648
  37 C :   -0.142750
  38 C :   -0.202254
  39 C :    0.037652
  40 C :    0.248237
  41 C :    0.280059
  42 N :   -0.347496
  43 C :    0.257736
  44 C :    0.064666
  45 N :   -0.270457
  46 C :   -0.156090
  47 S :    0.080920
  48 C :   -0.228220
  49 C :    0.019878
  50 C :   -0.210386
  51 C :   -0.143275
  52 C :   -0.104372
  53 C :   -0.135425
  54 C :   -0.213072
  55 H :    0.159344
  56 H :    0.125047
  57 H :    0.127114
  58 H :    0.125800
  59 H :    0.142004
  60 H :    0.160275
  61 H :    0.125404
  62 H :    0.126432
  63 H :    0.125068
  64 H :    0.135609
  65 H :    0.132314
  66 H :    0.170844
Sum of atomic charges:   -0.0000000

LOEWDIN ATOMIC CHARGES
----------------------
   0 C :   -0.131738
   1 C :   -0.099434
   2 C :   -0.166767
   3 C :   -0.167301
   4 C :   -0.097234
   5 C :   -0.131994
   6 N :    0.206808
   7 C :   -0.122331
   8 C :   -0.164497
   9 N :    0.201027
  10 C :   -0.101109
  11 C :   -0.131731
  12 C :   -0.093033
  13 C :   -0.065127
  14 H :    0.151980
  15 H :    0.149064
  16 H :    0.152919
  17 H :    0.148248
  18 H :    0.152950
  19 H :    0.148239
  20 S :    0.711679
  21 C :   -0.354502
  22 C :   -0.132927
  23 C :   -0.210935
  24 C :   -0.335294
  25 C :   -0.357819
  26 C :   -0.123782
  27 C :   -0.163558
  28 C :   -0.332725
  29 S :    0.710137
  30 H :    0.146331
  31 H :    0.142903
  32 H :    0.136677
  33 H :    0.136555
  34 C :   -0.093177
  35 C :   -0.139664
  36 C :   -0.135653
  37 C :   -0.139084
  38 C :   -0.091394
  39 C :   -0.117230
  40 C :   -0.124229
  41 C :   -0.121438
  42 N :    0.199147
  43 C :   -0.198845
  44 C :   -0.244630
  45 N :    0.201948
  46 C :   -0.282679
  47 S :    0.761196
  48 C :   -0.354713
  49 C :   -0.117121
  50 C :   -0.096099
  51 C :   -0.139353
  52 C :   -0.134904
  53 C :   -0.138015
  54 C :   -0.090137
  55 H :    0.158188
  56 H :    0.146834
  57 H :    0.145276
  58 H :    0.146174
  59 H :    0.152086
  60 H :    0.157616
  61 H :    0.146537
  62 H :    0.144980
  63 H :    0.145852
  64 H :    0.153677
  65 H :    0.153292
  66 H :    0.133887

  Mayer bond orders larger than 0.1
B(  0-C ,  1-C ) :   1.6149 B(  0-C ,  5-C ) :   1.1907 B(  0-C , 19-H ) :   0.9787
B(  1-C ,  2-C ) :   1.1797 B(  1-C , 18-H ) :   0.9725 B(  2-C ,  3-C ) :   1.1650
B(  2-C ,  6-N ) :   1.4058 B(  3-C ,  4-C ) :   1.1973 B(  3-C ,  9-N ) :   1.4067
B(  4-C ,  5-C ) :   1.6163 B(  4-C , 65-H ) :   0.9760 B(  5-C , 17-H ) :   0.9819
B(  6-N ,  7-C ) :   1.3589 B(  7-C ,  8-C ) :   1.1972 B(  7-C , 13-C ) :   1.1316
B(  8-C ,  9-N ) :   1.4274 B(  8-C , 10-C ) :   1.1958 B( 10-C , 11-C ) :   1.5926
B( 10-C , 16-H ) :   0.9817 B( 11-C , 12-C ) :   1.2323 B( 11-C , 15-H ) :   0.9875
B( 12-C , 13-C ) :   1.5635 B( 12-C , 14-H ) :   0.9586 B( 13-C , 27-C ) :   0.9057
B( 20-S , 21-C ) :   1.2775 B( 20-S , 24-C ) :   1.3086 B( 21-C , 22-C ) :   1.6731
B( 21-C , 25-C ) :   0.9229 B( 22-C , 23-C ) :   1.1979 B( 22-C , 31-H ) :   0.8861
B( 23-C , 24-C ) :   1.6392 B( 23-C , 46-C ) :   0.8853 B( 24-C , 33-H ) :   0.9013
B( 25-C , 26-C ) :   1.6783 B( 25-C , 29-S ) :   1.2824 B( 26-C , 27-C ) :   1.2611
B( 26-C , 30-H ) :   0.8849 B( 27-C , 28-C ) :   1.6319 B( 28-C , 29-S ) :   1.2979
B( 28-C , 32-H ) :   0.9198 B( 34-C , 35-C ) :   1.4353 B( 34-C , 39-C ) :   1.4063
B( 34-C , 64-H ) :   0.9717 B( 35-C , 36-C ) :   1.3918 B( 35-C , 63-H ) :   0.9859
B( 36-C , 37-C ) :   1.3830 B( 36-C , 62-H ) :   0.9806 B( 37-C , 38-C ) :   1.4582
B( 37-C , 61-H ) :   0.9837 B( 38-C , 39-C ) :   1.3378 B( 38-C , 60-H ) :   0.9666
B( 39-C , 40-C ) :   0.9011 B( 40-C , 41-C ) :   1.0954 B( 40-C , 45-N ) :   1.6284
B( 41-C , 42-N ) :   1.6675 B( 41-C , 49-C ) :   0.8596 B( 42-N , 43-C ) :   1.1478
B( 43-C , 44-C ) :   1.1631 B( 43-C , 46-C ) :   1.3031 B( 44-C , 45-N ) :   1.2673
B( 44-C , 48-C ) :   1.5749 B( 46-C , 47-S ) :   1.3828 B( 47-S , 48-C ) :   1.3131
B( 48-C , 66-H ) :   0.9184 B( 49-C , 50-C ) :   1.4031 B( 49-C , 54-C ) :   1.3337
B( 50-C , 51-C ) :   1.4489 B( 50-C , 59-H ) :   0.9648 B( 51-C , 52-C ) :   1.3931
B( 51-C , 58-H ) :   0.9834 B( 52-C , 53-C ) :   1.3839 B( 52-C , 57-H ) :   0.9807
B( 53-C , 54-C ) :   1.4574 B( 53-C , 56-H ) :   0.9857 B( 54-C , 55-H ) :   0.9722

Dispersion correction           -0.034126823
FINAL SINGLE POINT ENERGY     -2874.978169834337

DIPOLE MOMENT
-------------
                                X             Y             Z
Electronic contribution:     18.41432      -1.47273      -3.28220
Nuclear contribution   :    -18.72899       1.56946       3.39384
                        -----------------------------------------
Total Dipole Moment    :     -0.31467       0.09674       0.11164
                        -----------------------------------------
Magnitude (a.u.)       :      0.34762
Magnitude (Debye)      :      0.88359

                             ****ORCA TERMINATED NORMALLY****
TOTAL RUN TIME: 0 days 0 hours 19 minutes 28 seconds 497 msec
