                         Program Version 4.0.0 -  RELEASE  -
|  1> #
|  2> !wB97X-D3 def2-TZVP def2/J RIJCOSX Grid5 FinalGrid6 TightSCF
|  3> %pal
|  4>  nprocs 24
|  5> end
|  6> %tddft
|  7>   Mode sTDDFT
|  8>   nroots 2
|  9>   Ethresh 10.0
| 10>   maxcore 5000
| 11>   triplets true
| 12> end
| 13> * xyz 0 1
| 14> C -4.20843073 -3.96685533 1.27059958
| 15> C -4.08103742 -2.61067012 0.98160543
| 16> C -5.21285592 -1.77888167 1.08105264
| 17> C -6.45392445 -2.36822547 1.45320843
| 18> C -6.58364765 -3.73348354 1.75062212
| 19> C -5.44059666 -4.52290636 1.65694995
| 20> C -5.48024854 -0.36842749 0.84362651
| 21> C -6.87874909 -0.19058630 1.06091407
| 22> N -7.43777973 -1.39514091 1.44370261
| 23> C -7.53244043 1.03689363 0.87647046
| 24> C -6.76195917 2.11531517 0.44800959
| 25> C -5.38467779 1.97473419 0.23305057
| 26> C -4.71141315 0.75608488 0.43963861
| 27> H -4.80909641 2.84200234 -0.07891863
| 28> H -8.41797438 -1.54733524 1.64744157
| 29> H -7.22975829 3.08190575 0.28500278
| 30> H -3.11719054 -2.21434879 0.67946302
| 31> H -7.54237062 -4.15771877 2.03643126
| 32> H -5.50216006 -5.58494609 1.87857565
| 33> H -3.33720468 -4.61162420 1.19606245
| 34> C 2.19007178 1.99976026 -1.46969618
| 35> N 1.36158709 2.83481517 -2.11755706
| 36> O 0.10170073 2.52950797 -1.70639619
| 37> C 0.13452290 1.52302316 -0.81769688
| 38> C 1.44467195 1.13366369 -0.61885452
| 39> C -1.12854152 1.05589522 -0.26336614
| 40> N -1.18274845 0.05749571 0.63106766
| 41> O -2.49607819 -0.12144898 0.93067836
| 42> C -3.25831640 0.73956257 0.24016737
| 43> C -2.44019386 1.53563733 -0.54160179
| 44> H -2.72840213 2.32131776 -1.22434682
| 45> H 1.81105779 0.35329455 0.03246539
| 46> S 11.73558969 0.25066430 -0.98269030
| 47> C 9.96187452 0.33882857 -0.86372364
| 48> C 9.33235190 -0.52523729 -0.02812435
| 49> S 10.32688790 -1.68313440 0.88737187
| 50> C 11.95808138 -1.13314162 0.21940535
| 51> S 7.56311935 -0.43246069 0.08620305
| 52> C 7.40989497 0.91398774 -1.08968938
| 53> S 8.96473948 1.49152713 -1.77438946
| 54> C 6.21221547 1.45239536 -1.43337422
| 55> S 6.04406146 2.79354878 -2.60287984
| 56> C 4.28391602 2.89603776 -2.49731482
| 57> C 3.63673464 2.03908513 -1.66595589
| 58> S 4.65744626 0.88593156 -0.75833323
| 59> H 12.45809889 -1.97481105 -0.27430301
| 60> H 12.60384275 -0.80685410 1.04324733
| 61> H -8.59972933 1.13784234 1.05175839
| 62> H 3.76545865 3.63738038 -3.09617970
| 63> *
| 64> $new_job
| 65> #
| 66> !wB97X-D3 def2-TZVP def2/J RIJCOSX Grid5 FinalGrid6 TightSCF
| 67> %pal
| 68>  nprocs 24
| 69> end
| 70> %elprop
| 71>    dipole     true
| 72>    quadrupole true
| 73> end
| 74> %tddft
| 75>   Mode sTDDFT
| 76>   nroots 2
| 77>   Ethresh 10.0
| 78>   maxcore 5000
| 79> end
| 80> * xyz 0 1
| 81> C -4.20843073 -3.96685533 1.27059958
| 82> C -4.08103742 -2.61067012 0.98160543
| 83> C -5.21285592 -1.77888167 1.08105264
| 84> C -6.45392445 -2.36822547 1.45320843
| 85> C -6.58364765 -3.73348354 1.75062212
| 86> C -5.44059666 -4.52290636 1.65694995
| 87> C -5.48024854 -0.36842749 0.84362651
| 88> C -6.87874909 -0.19058630 1.06091407
| 89> N -7.43777973 -1.39514091 1.44370261
| 90> C -7.53244043 1.03689363 0.87647046
| 91> C -6.76195917 2.11531517 0.44800959
| 92> C -5.38467779 1.97473419 0.23305057
| 93> C -4.71141315 0.75608488 0.43963861
| 94> H -4.80909641 2.84200234 -0.07891863
| 95> H -8.41797438 -1.54733524 1.64744157
| 96> H -7.22975829 3.08190575 0.28500278
| 97> H -3.11719054 -2.21434879 0.67946302
| 98> H -7.54237062 -4.15771877 2.03643126
| 99> H -5.50216006 -5.58494609 1.87857565
|100> H -3.33720468 -4.61162420 1.19606245
|101> C 2.19007178 1.99976026 -1.46969618
|102> N 1.36158709 2.83481517 -2.11755706
|103> O 0.10170073 2.52950797 -1.70639619
|104> C 0.13452290 1.52302316 -0.81769688
|105> C 1.44467195 1.13366369 -0.61885452
|106> C -1.12854152 1.05589522 -0.26336614
|107> N -1.18274845 0.05749571 0.63106766
|108> O -2.49607819 -0.12144898 0.93067836
|109> C -3.25831640 0.73956257 0.24016737
|110> C -2.44019386 1.53563733 -0.54160179
|111> H -2.72840213 2.32131776 -1.22434682
|112> H 1.81105779 0.35329455 0.03246539
|113> S 11.73558969 0.25066430 -0.98269030
|114> C 9.96187452 0.33882857 -0.86372364
|115> C 9.33235190 -0.52523729 -0.02812435
|116> S 10.32688790 -1.68313440 0.88737187
|117> C 11.95808138 -1.13314162 0.21940535
|118> S 7.56311935 -0.43246069 0.08620305
|119> C 7.40989497 0.91398774 -1.08968938
|120> S 8.96473948 1.49152713 -1.77438946
|121> C 6.21221547 1.45239536 -1.43337422
|122> S 6.04406146 2.79354878 -2.60287984
|123> C 4.28391602 2.89603776 -2.49731482
|124> C 3.63673464 2.03908513 -1.66595589
|125> S 4.65744626 0.88593156 -0.75833323
|126> H 12.45809889 -1.97481105 -0.27430301
|127> H 12.60384275 -0.80685410 1.04324733
|128> H -8.59972933 1.13784234 1.05175839
|129> H 3.76545865 3.63738038 -3.09617970
|130> *
|131>
|132>                          ****END OF INPUT****
 Total Charge           Charge          ....    0
 Multiplicity           Mult            ....    1
 Number of Electrons    NEL             ....  296
Dispersion correction           -0.021922892
FINAL SINGLE POINT ENERGY     -3664.356451355298

CARTESIAN COORDINATES (ANGSTROEM)
---------------------------------
  C     -4.208431   -3.966855    1.270600
  C     -4.081037   -2.610670    0.981605
  C     -5.212856   -1.778882    1.081053
  C     -6.453924   -2.368225    1.453208
  C     -6.583648   -3.733484    1.750622
  C     -5.440597   -4.522906    1.656950
  C     -5.480249   -0.368427    0.843627
  C     -6.878749   -0.190586    1.060914
  N     -7.437780   -1.395141    1.443703
  C     -7.532440    1.036894    0.876470
  C     -6.761959    2.115315    0.448010
  C     -5.384678    1.974734    0.233051
  C     -4.711413    0.756085    0.439639
  H     -4.809096    2.842002   -0.078919
  H     -8.417974   -1.547335    1.647442
  H     -7.229758    3.081906    0.285003
  H     -3.117191   -2.214349    0.679463
  H     -7.542371   -4.157719    2.036431
  H     -5.502160   -5.584946    1.878576
  H     -3.337205   -4.611624    1.196062
  C      2.190072    1.999760   -1.469696
  N      1.361587    2.834815   -2.117557
  O      0.101701    2.529508   -1.706396
  C      0.134523    1.523023   -0.817697
  C      1.444672    1.133664   -0.618855
  C     -1.128542    1.055895   -0.263366
  N     -1.182748    0.057496    0.631068
  O     -2.496078   -0.121449    0.930678
  C     -3.258316    0.739563    0.240167
  C     -2.440194    1.535637   -0.541602
  H     -2.728402    2.321318   -1.224347
  H      1.811058    0.353295    0.032465
  S     11.735590    0.250664   -0.982690
  C      9.961875    0.338829   -0.863724
  C      9.332352   -0.525237   -0.028124
  S     10.326888   -1.683134    0.887372
  C     11.958081   -1.133142    0.219405
  S      7.563119   -0.432461    0.086203
  C      7.409895    0.913988   -1.089689
  S      8.964739    1.491527   -1.774389
  C      6.212215    1.452395   -1.433374
  S      6.044061    2.793549   -2.602880
  C      4.283916    2.896038   -2.497315
  C      3.636735    2.039085   -1.665956
  S      4.657446    0.885932   -0.758333
  H     12.458099   -1.974811   -0.274303
  H     12.603843   -0.806854    1.043247
  H     -8.599729    1.137842    1.051758
  H      3.765459    3.637380   -3.096180

 Multiplicity           Mult            ....    1
 Number of Electrons    NEL             ....  296
 Basis Dimension        Dim             .... 1230

ORBITAL ENERGIES
----------------

  NO   OCC          E(Eh)            E(eV)
   0   2.0000     -88.994649     -2421.6675
   1   2.0000     -88.994614     -2421.6666
   2   2.0000     -88.993025     -2421.6233
   3   2.0000     -88.991604     -2421.5847
   4   2.0000     -88.983870     -2421.3742
   5   2.0000     -88.983783     -2421.3718
   6   2.0000     -19.347187      -526.4637
   7   2.0000     -19.344701      -526.3961
   8   2.0000     -14.489305      -394.2740
   9   2.0000     -14.487647      -394.2289
  10   2.0000     -14.474886      -393.8817
  11   2.0000     -10.378058      -282.4013
  12   2.0000     -10.373127      -282.2671
  13   2.0000     -10.365843      -282.0689
  14   2.0000     -10.363103      -281.9944
  15   2.0000     -10.361795      -281.9588
  16   2.0000     -10.359120      -281.8860
  17   2.0000     -10.358387      -281.8661
  18   2.0000     -10.350844      -281.6608
  19   2.0000     -10.350590      -281.6539
  20   2.0000     -10.349332      -281.6196
  21   2.0000     -10.339168      -281.3431
  22   2.0000     -10.338175      -281.3160
  23   2.0000     -10.331116      -281.1240
  24   2.0000     -10.322528      -280.8903
  25   2.0000     -10.308202      -280.5004
  26   2.0000     -10.307501      -280.4814
  27   2.0000     -10.304371      -280.3962
  28   2.0000     -10.301373      -280.3146
  29   2.0000     -10.298632      -280.2400
  30   2.0000     -10.296492      -280.1818
  31   2.0000     -10.295264      -280.1484
  32   2.0000     -10.289808      -279.9999
  33   2.0000     -10.288528      -279.9651
  34   2.0000     -10.286105      -279.8991
  35   2.0000     -10.277350      -279.6609
  36   2.0000      -8.090504      -220.1538
  37   2.0000      -8.090452      -220.1524
  38   2.0000      -8.089231      -220.1192
  39   2.0000      -8.088025      -220.0864
  40   2.0000      -8.080271      -219.8754
  41   2.0000      -8.080192      -219.8732
  42   2.0000      -6.044850      -164.4887
  43   2.0000      -6.044798      -164.4873
  44   2.0000      -6.043441      -164.4504
  45   2.0000      -6.042184      -164.4162
  46   2.0000      -6.040693      -164.3756
  47   2.0000      -6.040639      -164.3741
  48   2.0000      -6.038967      -164.3287
  49   2.0000      -6.037996      -164.3022
  50   2.0000      -6.035321      -164.2294
  51   2.0000      -6.035279      -164.2283
  52   2.0000      -6.034887      -164.2176
  53   2.0000      -6.034814      -164.2156
  54   2.0000      -6.034637      -164.2108
  55   2.0000      -6.033215      -164.1721
  56   2.0000      -6.030610      -164.1012
  57   2.0000      -6.030544      -164.0995
  58   2.0000      -6.024514      -163.9354
  59   2.0000      -6.024429      -163.9330
  60   2.0000      -1.294207       -35.2172
  61   2.0000      -1.291938       -35.1554
  62   2.0000      -1.112222       -30.2651
  63   2.0000      -1.030535       -28.0423
  64   2.0000      -1.022086       -27.8124
  65   2.0000      -1.012173       -27.5426
  66   2.0000      -0.993824       -27.0433
  67   2.0000      -0.985367       -26.8132
  68   2.0000      -0.969516       -26.3819
  69   2.0000      -0.959295       -26.1038
  70   2.0000      -0.941378       -25.6162
  71   2.0000      -0.925545       -25.1854
  72   2.0000      -0.906958       -24.6796
  73   2.0000      -0.906169       -24.6581
  74   2.0000      -0.901817       -24.5397
  75   2.0000      -0.885205       -24.0877
  76   2.0000      -0.877081       -23.8666
  77   2.0000      -0.851591       -23.1730
  78   2.0000      -0.845873       -23.0174
  79   2.0000      -0.844830       -22.9890
  80   2.0000      -0.843716       -22.9587
  81   2.0000      -0.786013       -21.3885
  82   2.0000      -0.782292       -21.2872
  83   2.0000      -0.772229       -21.0134
  84   2.0000      -0.751391       -20.4464
  85   2.0000      -0.737652       -20.0725
  86   2.0000      -0.725141       -19.7321
  87   2.0000      -0.722511       -19.6605
  88   2.0000      -0.721902       -19.6439
  89   2.0000      -0.714782       -19.4502
  90   2.0000      -0.697993       -18.9933
  91   2.0000      -0.669632       -18.2216
  92   2.0000      -0.662215       -18.0198
  93   2.0000      -0.642358       -17.4795
  94   2.0000      -0.633421       -17.2363
  95   2.0000      -0.632739       -17.2177
  96   2.0000      -0.620755       -16.8916
  97   2.0000      -0.618539       -16.8313
  98   2.0000      -0.613986       -16.7074
  99   2.0000      -0.603951       -16.4343
 100   2.0000      -0.598713       -16.2918
 101   2.0000      -0.586967       -15.9722
 102   2.0000      -0.573212       -15.5979
 103   2.0000      -0.570888       -15.5346
 104   2.0000      -0.568106       -15.4590
 105   2.0000      -0.559959       -15.2372
 106   2.0000      -0.552705       -15.0399
 107   2.0000      -0.550677       -14.9847
 108   2.0000      -0.546076       -14.8595
 109   2.0000      -0.541189       -14.7265
 110   2.0000      -0.537134       -14.6162
 111   2.0000      -0.534360       -14.5407
 112   2.0000      -0.528340       -14.3769
 113   2.0000      -0.526129       -14.3167
 114   2.0000      -0.525160       -14.2903
 115   2.0000      -0.512739       -13.9523
 116   2.0000      -0.506156       -13.7732
 117   2.0000      -0.500087       -13.6081
 118   2.0000      -0.496678       -13.5153
 119   2.0000      -0.490775       -13.3547
 120   2.0000      -0.480241       -13.0680
 121   2.0000      -0.477762       -13.0006
 122   2.0000      -0.473132       -12.8746
 123   2.0000      -0.472086       -12.8461
 124   2.0000      -0.464419       -12.6375
 125   2.0000      -0.455289       -12.3891
 126   2.0000      -0.452236       -12.3060
 127   2.0000      -0.450143       -12.2490
 128   2.0000      -0.448067       -12.1925
 129   2.0000      -0.441702       -12.0193
 130   2.0000      -0.432667       -11.7735
 131   2.0000      -0.427124       -11.6226
 132   2.0000      -0.419827       -11.4241
 133   2.0000      -0.417829       -11.3697
 134   2.0000      -0.414264       -11.2727
 135   2.0000      -0.410747       -11.1770
 136   2.0000      -0.407097       -11.0777
 137   2.0000      -0.396755       -10.7963
 138   2.0000      -0.380793       -10.3619
 139   2.0000      -0.376765       -10.2523
 140   2.0000      -0.357128        -9.7179
 141   2.0000      -0.354810        -9.6549
 142   2.0000      -0.345416        -9.3992
 143   2.0000      -0.337387        -9.1808
 144   2.0000      -0.305512        -8.3134
 145   2.0000      -0.295055        -8.0288
 146   2.0000      -0.294473        -8.0130
 147   2.0000      -0.250858        -6.8262
 148   0.0000      -0.005481        -0.1491
 149   0.0000       0.004378         0.1191
 150   0.0000       0.021664         0.5895
 151   0.0000       0.030466         0.8290
 152   0.0000       0.042164         1.1474

MULLIKEN ATOMIC CHARGES
-----------------------
   0 C :   -0.169092
   1 C :   -0.131998
   2 C :   -0.050261
   3 C :    0.173408
   4 C :   -0.239910
   5 C :   -0.081213
   6 C :   -0.016563
   7 C :    0.179848
   8 N :   -0.302762
   9 C :   -0.226218
  10 C :   -0.088033
  11 C :   -0.283958
  12 C :    0.064160
  13 H :    0.125690
  14 H :    0.238033
  15 H :    0.127712
  16 H :    0.148541
  17 H :    0.116872
  18 H :    0.123752
  19 H :    0.121529
  20 C :    0.309143
  21 N :   -0.170018
  22 O :   -0.121783
  23 C :    0.218947
  24 C :   -0.287555
  25 C :    0.137666
  26 N :   -0.176496
  27 O :   -0.127434
  28 C :    0.306986
  29 C :   -0.262693
  30 H :    0.177518
  31 H :    0.186647
  32 S :   -0.023697
  33 C :   -0.031037
  34 C :   -0.034553
  35 S :   -0.024584
  36 C :   -0.222370
  37 S :    0.008639
  38 C :   -0.117272
  39 S :    0.009485
  40 C :    0.090105
  41 S :    0.040195
  42 C :   -0.147191
  43 C :   -0.167558
  44 S :   -0.015359
  45 H :    0.152066
  46 H :    0.151807
  47 H :    0.120906
  48 H :    0.189950
Sum of atomic charges:   -0.0000000

LOEWDIN ATOMIC CHARGES
----------------------
   0 C :   -0.156053
   1 C :   -0.096803
   2 C :   -0.080774
   3 C :   -0.144131
   4 C :   -0.133404
   5 C :   -0.138189
   6 C :   -0.034245
   7 C :   -0.142916
   8 N :    0.202233
   9 C :   -0.119626
  10 C :   -0.139920
  11 C :   -0.106572
  12 C :   -0.082719
  13 H :    0.150867
  14 H :    0.194088
  15 H :    0.147998
  16 H :    0.151779
  17 H :    0.143433
  18 H :    0.145299
  19 H :    0.144896
  20 C :   -0.253316
  21 N :    0.037634
  22 O :    0.306017
  23 C :   -0.214362
  24 C :   -0.113509
  25 C :   -0.227931
  26 N :    0.040734
  27 O :    0.312323
  28 C :   -0.196416
  29 C :   -0.117103
  30 H :    0.152830
  31 H :    0.154551
  32 S :    0.530901
  33 C :   -0.661940
  34 C :   -0.661881
  35 S :    0.531073
  36 C :   -0.597060
  37 S :    0.623222
  38 C :   -0.621999
  39 S :    0.622531
  40 C :   -0.630461
  41 S :    0.632494
  42 C :   -0.355455
  43 C :   -0.369280
  44 S :    0.648958
  45 H :    0.113902
  46 H :    0.113886
  47 H :    0.145784
  48 H :    0.148629

  Mayer bond orders larger than 0.1
B(  0-C ,  1-C ) :   1.5343 B(  0-C ,  5-C ) :   1.3533 B(  0-C , 19-H ) :   0.9853
B(  1-C ,  2-C ) :   1.2746 B(  1-C , 16-H ) :   0.9367 B(  2-C ,  3-C ) :   1.3645
B(  2-C ,  6-C ) :   1.0740 B(  3-C ,  4-C ) :   1.3026 B(  3-C ,  8-N ) :   1.1161
B(  4-C ,  5-C ) :   1.4849 B(  4-C , 17-H ) :   0.9763 B(  5-C , 18-H ) :   0.9810
B(  6-C ,  7-C ) :   1.3287 B(  6-C , 12-C ) :   1.2493 B(  7-C ,  8-N ) :   1.1552
B(  7-C ,  9-C ) :   1.2887 B(  8-N , 14-H ) :   0.9125 B(  9-C , 10-C ) :   1.4595
B(  9-C , 47-H ) :   0.9740 B( 10-C , 11-C ) :   1.4112 B( 10-C , 15-H ) :   0.9831
B( 11-C , 12-C ) :   1.4391 B( 11-C , 13-H ) :   0.9697 B( 12-C , 28-C ) :   0.9657
B( 20-C , 21-N ) :   1.6230 B( 20-C , 24-C ) :   1.2742 B( 20-C , 43-C ) :   0.8874
B( 20-C , 44-S ) :  -0.1382 B( 21-N , 22-O ) :   0.9954 B( 21-N , 23-C ) :   0.1180
B( 22-O , 23-C ) :   1.1991 B( 23-C , 24-C ) :   1.6375 B( 23-C , 25-C ) :   0.9851
B( 24-C , 31-H ) :   0.9000 B( 25-C , 26-N ) :   1.6513 B( 25-C , 29-C ) :   1.2826
B( 26-N , 27-O ) :   0.9957 B( 26-N , 28-C ) :   0.1251 B( 27-O , 28-C ) :   1.1682
B( 28-C , 29-C ) :   1.5976 B( 29-C , 30-H ) :   0.9166 B( 32-S , 33-C ) :   1.0912
B( 32-S , 36-C ) :   1.0265 B( 33-C , 34-C ) :   1.7629 B( 33-C , 39-S ) :   1.1090
B( 34-C , 35-S ) :   1.0914 B( 34-C , 37-S ) :   1.1117 B( 35-S , 36-C ) :   1.0259
B( 36-C , 45-H ) :   0.9504 B( 36-C , 46-H ) :   0.9504 B( 37-S , 38-C ) :   1.1627
B( 38-C , 39-S ) :   1.1670 B( 38-C , 40-C ) :   1.5422 B( 40-C , 41-S ) :   1.0944
B( 40-C , 44-S ) :   1.1272 B( 41-S , 42-C ) :   1.1765 B( 42-C , 43-C ) :   1.8202
B( 42-C , 48-H ) :   0.9008 B( 43-C , 44-S ) :   1.2169

Dispersion correction           -0.021922892
FINAL SINGLE POINT ENERGY     -3664.356451280411

DIPOLE MOMENT
-------------
                                X             Y             Z
Electronic contribution:     44.22094      10.10438      -7.91134
Nuclear contribution   :    -45.67212     -10.47582       8.27308
                        -----------------------------------------
Total Dipole Moment    :     -1.45118      -0.37144       0.36174
                        -----------------------------------------
Magnitude (a.u.)       :      1.54102
Magnitude (Debye)      :      3.91697

                             ****ORCA TERMINATED NORMALLY****
TOTAL RUN TIME: 0 days 0 hours 14 minutes 20 seconds 620 msec
