                         Program Version 4.0.0 -  RELEASE  -
|  1> #
|  2> !wB97X-D3 def2-TZVP def2/J RIJCOSX Grid5 FinalGrid6 TightSCF
|  3> %pal
|  4>  nprocs 24
|  5> end
|  6> %tddft
|  7>   Mode sTDDFT
|  8>   nroots 2
|  9>   Ethresh 10.0
| 10>   maxcore 5000
| 11>   triplets true
| 12> end
| 13> * xyz 0 1
| 14> C -5.11393686 -1.47516124 -2.63546190
| 15> C -4.54771706 -0.66703732 -1.65184230
| 16> C -5.38942843 -0.00954984 -0.73630507
| 17> C -6.79763718 -0.15951392 -0.88147852
| 18> C -7.37082922 -0.97650918 -1.86781756
| 19> C -6.50654633 -1.63815179 -2.73729418
| 20> C -5.18302990 0.91186864 0.36965290
| 21> C -6.48183421 1.30224917 0.80567624
| 22> N -7.43429813 0.62892324 0.06108691
| 23> C -6.69290587 2.24753601 1.82117497
| 24> C -5.56391918 2.82227081 2.40136586
| 25> C -4.27372452 2.44073681 2.00722897
| 26> C -4.04799066 1.47077641 1.01251099
| 27> H -3.41763646 2.88457752 2.50843656
| 28> H -8.43650064 0.73568082 0.15852388
| 29> H -5.68137612 3.56653285 3.18423907
| 30> H -3.46951212 -0.54210361 -1.61392231
| 31> H -8.44904579 -1.08021909 -1.95597396
| 32> H -6.91433395 -2.27814721 -3.51520251
| 33> H -4.46782365 -1.98643191 -3.34388356
| 34> N 1.98263020 -0.40913905 0.19215756
| 35> C 0.69520709 -0.91725813 0.30501598
| 36> C 0.60226301 -2.29954494 0.24999759
| 37> S 2.18392037 -3.00827577 0.04867838
| 38> C 2.88344398 -1.36789273 0.05140531
| 39> C -0.43067750 -0.00687150 0.46699382
| 40> S -2.10674678 -0.59141839 0.62152208
| 41> C -2.65642259 1.08025097 0.73533216
| 42> C -1.55734952 1.91684378 0.67527642
| 43> N -0.33288895 1.31184227 0.50976524
| 44> H -0.29938423 -2.89527112 0.31754762
| 45> H -1.61805976 3.00267240 0.71906454
| 46> S 9.48337217 -2.61678223 -0.70907755
| 47> C 8.20492108 -1.44685686 -0.51839164
| 48> C 8.69354913 -0.14548214 -0.50955942
| 49> C 10.10784168 -0.07905473 -0.65692355
| 50> C 10.67604092 -1.32804309 -0.77574138
| 51> C 6.77277893 -1.40799493 -0.36421559
| 52> C 6.36690271 -0.07891821 -0.25892314
| 53> C 7.56259635 0.84058593 -0.34316901
| 54> C 4.96812938 0.07291641 -0.10301518
| 55> C 4.30219214 -1.14910244 -0.08927325
| 56> S 5.42423168 -2.50885931 -0.27220061
| 57> H 4.44708136 1.01840339 -0.00342593
| 58> H 10.68404779 0.83950360 -0.67530808
| 59> H 7.49063663 1.53918601 -1.18645809
| 60> H 7.67613728 1.45773106 0.55716433
| 61> H -7.69525004 2.52701208 2.13291030
| 62> H 11.72878176 -1.54880950 -0.89806339
| 63> *
| 64> $new_job
| 65> #
| 66> !wB97X-D3 def2-TZVP def2/J RIJCOSX Grid5 FinalGrid6 TightSCF
| 67> %pal
| 68>  nprocs 24
| 69> end
| 70> %elprop
| 71>    dipole     true
| 72>    quadrupole true
| 73> end
| 74> %tddft
| 75>   Mode sTDDFT
| 76>   nroots 2
| 77>   Ethresh 10.0
| 78>   maxcore 5000
| 79> end
| 80> * xyz 0 1
| 81> C -5.11393686 -1.47516124 -2.63546190
| 82> C -4.54771706 -0.66703732 -1.65184230
| 83> C -5.38942843 -0.00954984 -0.73630507
| 84> C -6.79763718 -0.15951392 -0.88147852
| 85> C -7.37082922 -0.97650918 -1.86781756
| 86> C -6.50654633 -1.63815179 -2.73729418
| 87> C -5.18302990 0.91186864 0.36965290
| 88> C -6.48183421 1.30224917 0.80567624
| 89> N -7.43429813 0.62892324 0.06108691
| 90> C -6.69290587 2.24753601 1.82117497
| 91> C -5.56391918 2.82227081 2.40136586
| 92> C -4.27372452 2.44073681 2.00722897
| 93> C -4.04799066 1.47077641 1.01251099
| 94> H -3.41763646 2.88457752 2.50843656
| 95> H -8.43650064 0.73568082 0.15852388
| 96> H -5.68137612 3.56653285 3.18423907
| 97> H -3.46951212 -0.54210361 -1.61392231
| 98> H -8.44904579 -1.08021909 -1.95597396
| 99> H -6.91433395 -2.27814721 -3.51520251
|100> H -4.46782365 -1.98643191 -3.34388356
|101> N 1.98263020 -0.40913905 0.19215756
|102> C 0.69520709 -0.91725813 0.30501598
|103> C 0.60226301 -2.29954494 0.24999759
|104> S 2.18392037 -3.00827577 0.04867838
|105> C 2.88344398 -1.36789273 0.05140531
|106> C -0.43067750 -0.00687150 0.46699382
|107> S -2.10674678 -0.59141839 0.62152208
|108> C -2.65642259 1.08025097 0.73533216
|109> C -1.55734952 1.91684378 0.67527642
|110> N -0.33288895 1.31184227 0.50976524
|111> H -0.29938423 -2.89527112 0.31754762
|112> H -1.61805976 3.00267240 0.71906454
|113> S 9.48337217 -2.61678223 -0.70907755
|114> C 8.20492108 -1.44685686 -0.51839164
|115> C 8.69354913 -0.14548214 -0.50955942
|116> C 10.10784168 -0.07905473 -0.65692355
|117> C 10.67604092 -1.32804309 -0.77574138
|118> C 6.77277893 -1.40799493 -0.36421559
|119> C 6.36690271 -0.07891821 -0.25892314
|120> C 7.56259635 0.84058593 -0.34316901
|121> C 4.96812938 0.07291641 -0.10301518
|122> C 4.30219214 -1.14910244 -0.08927325
|123> S 5.42423168 -2.50885931 -0.27220061
|124> H 4.44708136 1.01840339 -0.00342593
|125> H 10.68404779 0.83950360 -0.67530808
|126> H 7.49063663 1.53918601 -1.18645809
|127> H 7.67613728 1.45773106 0.55716433
|128> H -7.69525004 2.52701208 2.13291030
|129> H 11.72878176 -1.54880950 -0.89806339
|130> *
|131>
|132>                          ****END OF INPUT****
 Total Charge           Charge          ....    0
 Multiplicity           Mult            ....    1
 Number of Electrons    NEL             ....  262
Dispersion correction           -0.022993371
FINAL SINGLE POINT ENERGY     -2795.035384117182

CARTESIAN COORDINATES (ANGSTROEM)
---------------------------------
  C     -5.113937   -1.475161   -2.635462
  C     -4.547717   -0.667037   -1.651842
  C     -5.389428   -0.009550   -0.736305
  C     -6.797637   -0.159514   -0.881479
  C     -7.370829   -0.976509   -1.867818
  C     -6.506546   -1.638152   -2.737294
  C     -5.183030    0.911869    0.369653
  C     -6.481834    1.302249    0.805676
  N     -7.434298    0.628923    0.061087
  C     -6.692906    2.247536    1.821175
  C     -5.563919    2.822271    2.401366
  C     -4.273725    2.440737    2.007229
  C     -4.047991    1.470776    1.012511
  H     -3.417636    2.884578    2.508437
  H     -8.436501    0.735681    0.158524
  H     -5.681376    3.566533    3.184239
  H     -3.469512   -0.542104   -1.613922
  H     -8.449046   -1.080219   -1.955974
  H     -6.914334   -2.278147   -3.515203
  H     -4.467824   -1.986432   -3.343884
  N      1.982630   -0.409139    0.192158
  C      0.695207   -0.917258    0.305016
  C      0.602263   -2.299545    0.249998
  S      2.183920   -3.008276    0.048678
  C      2.883444   -1.367893    0.051405
  C     -0.430677   -0.006872    0.466994
  S     -2.106747   -0.591418    0.621522
  C     -2.656423    1.080251    0.735332
  C     -1.557350    1.916844    0.675276
  N     -0.332889    1.311842    0.509765
  H     -0.299384   -2.895271    0.317548
  H     -1.618060    3.002672    0.719065
  S      9.483372   -2.616782   -0.709078
  C      8.204921   -1.446857   -0.518392
  C      8.693549   -0.145482   -0.509559
  C     10.107842   -0.079055   -0.656924
  C     10.676041   -1.328043   -0.775741
  C      6.772779   -1.407995   -0.364216
  C      6.366903   -0.078918   -0.258923
  C      7.562596    0.840586   -0.343169
  C      4.968129    0.072916   -0.103015
  C      4.302192   -1.149102   -0.089273
  S      5.424232   -2.508859   -0.272201
  H      4.447081    1.018403   -0.003426
  H     10.684048    0.839504   -0.675308
  H      7.490637    1.539186   -1.186458
  H      7.676137    1.457731    0.557164
  H     -7.695250    2.527012    2.132910
  H     11.728782   -1.548809   -0.898063

 Multiplicity           Mult            ....    1
 Number of Electrons    NEL             ....  262
 Basis Dimension        Dim             .... 1168

ORBITAL ENERGIES
----------------

  NO   OCC          E(Eh)            E(eV)
   0   2.0000     -88.994771     -2421.6708
   1   2.0000     -88.993987     -2421.6495
   2   2.0000     -88.989839     -2421.5366
   3   2.0000     -88.986321     -2421.4409
   4   2.0000     -14.469348      -393.7310
   5   2.0000     -14.430552      -392.6753
   6   2.0000     -14.425117      -392.5274
   7   2.0000     -10.369472      -282.1677
   8   2.0000     -10.358038      -281.8565
   9   2.0000     -10.337472      -281.2969
  10   2.0000     -10.333104      -281.1781
  11   2.0000     -10.331972      -281.1473
  12   2.0000     -10.330083      -281.0958
  13   2.0000     -10.327001      -281.0120
  14   2.0000     -10.326734      -281.0047
  15   2.0000     -10.326210      -280.9905
  16   2.0000     -10.325863      -280.9810
  17   2.0000     -10.319240      -280.8008
  18   2.0000     -10.312082      -280.6060
  19   2.0000     -10.312037      -280.6048
  20   2.0000     -10.306437      -280.4524
  21   2.0000     -10.301245      -280.3111
  22   2.0000     -10.300592      -280.2933
  23   2.0000     -10.300120      -280.2805
  24   2.0000     -10.296690      -280.1872
  25   2.0000     -10.296518      -280.1825
  26   2.0000     -10.291199      -280.0378
  27   2.0000     -10.291082      -280.0346
  28   2.0000     -10.289565      -279.9933
  29   2.0000     -10.287302      -279.9317
  30   2.0000     -10.285722      -279.8887
  31   2.0000     -10.284898      -279.8663
  32   2.0000     -10.283207      -279.8203
  33   2.0000     -10.276055      -279.6257
  34   2.0000      -8.091221      -220.1733
  35   2.0000      -8.089936      -220.1384
  36   2.0000      -8.085635      -220.0213
  37   2.0000      -8.083067      -219.9514
  38   2.0000      -6.044415      -164.4769
  39   2.0000      -6.043359      -164.4482
  40   2.0000      -6.040302      -164.3650
  41   2.0000      -6.039316      -164.3381
  42   2.0000      -6.039079      -164.3317
  43   2.0000      -6.038369      -164.3124
  44   2.0000      -6.036749      -164.2683
  45   2.0000      -6.036105      -164.2508
  46   2.0000      -6.034847      -164.2165
  47   2.0000      -6.032647      -164.1567
  48   2.0000      -6.032248      -164.1458
  49   2.0000      -6.030220      -164.0906
  50   2.0000      -1.106036       -30.0968
  51   2.0000      -1.088544       -29.6208
  52   2.0000      -1.068035       -29.0627
  53   2.0000      -1.035691       -28.1826
  54   2.0000      -0.994507       -27.0619
  55   2.0000      -0.978051       -26.6141
  56   2.0000      -0.966576       -26.3019
  57   2.0000      -0.938147       -25.5283
  58   2.0000      -0.921733       -25.0816
  59   2.0000      -0.915716       -24.9179
  60   2.0000      -0.903478       -24.5849
  61   2.0000      -0.898453       -24.4482
  62   2.0000      -0.880286       -23.9538
  63   2.0000      -0.870625       -23.6909
  64   2.0000      -0.854028       -23.2393
  65   2.0000      -0.851490       -23.1702
  66   2.0000      -0.840335       -22.8667
  67   2.0000      -0.831912       -22.6375
  68   2.0000      -0.802852       -21.8467
  69   2.0000      -0.800109       -21.7721
  70   2.0000      -0.766597       -20.8602
  71   2.0000      -0.743840       -20.2409
  72   2.0000      -0.731870       -19.9152
  73   2.0000      -0.721768       -19.6403
  74   2.0000      -0.714374       -19.4391
  75   2.0000      -0.697463       -18.9789
  76   2.0000      -0.677278       -18.4297
  77   2.0000      -0.670609       -18.2482
  78   2.0000      -0.667118       -18.1532
  79   2.0000      -0.647755       -17.6263
  80   2.0000      -0.641568       -17.4579
  81   2.0000      -0.637350       -17.3432
  82   2.0000      -0.623484       -16.9659
  83   2.0000      -0.620864       -16.8946
  84   2.0000      -0.613304       -16.6888
  85   2.0000      -0.596907       -16.2427
  86   2.0000      -0.590589       -16.0707
  87   2.0000      -0.571853       -15.5609
  88   2.0000      -0.566931       -15.4270
  89   2.0000      -0.563542       -15.3348
  90   2.0000      -0.558092       -15.1865
  91   2.0000      -0.554879       -15.0990
  92   2.0000      -0.547763       -14.9054
  93   2.0000      -0.542190       -14.7537
  94   2.0000      -0.540553       -14.7092
  95   2.0000      -0.534610       -14.5475
  96   2.0000      -0.531081       -14.4515
  97   2.0000      -0.523047       -14.2328
  98   2.0000      -0.516807       -14.0630
  99   2.0000      -0.511822       -13.9274
 100   2.0000      -0.507920       -13.8212
 101   2.0000      -0.498459       -13.5638
 102   2.0000      -0.486298       -13.2328
 103   2.0000      -0.478892       -13.0313
 104   2.0000      -0.478392       -13.0177
 105   2.0000      -0.475774       -12.9465
 106   2.0000      -0.473925       -12.8962
 107   2.0000      -0.470865       -12.8129
 108   2.0000      -0.468480       -12.7480
 109   2.0000      -0.465944       -12.6790
 110   2.0000      -0.464592       -12.6422
 111   2.0000      -0.451423       -12.2838
 112   2.0000      -0.444019       -12.0824
 113   2.0000      -0.443070       -12.0565
 114   2.0000      -0.439416       -11.9571
 115   2.0000      -0.438945       -11.9443
 116   2.0000      -0.433990       -11.8095
 117   2.0000      -0.402919       -10.9640
 118   2.0000      -0.390014       -10.6128
 119   2.0000      -0.381784       -10.3889
 120   2.0000      -0.376882       -10.2555
 121   2.0000      -0.370111       -10.0712
 122   2.0000      -0.359472        -9.7817
 123   2.0000      -0.358572        -9.7572
 124   2.0000      -0.350382        -9.5344
 125   2.0000      -0.343398        -9.3443
 126   2.0000      -0.341589        -9.2951
 127   2.0000      -0.313341        -8.5264
 128   2.0000      -0.298331        -8.1180
 129   2.0000      -0.286001        -7.7825
 130   2.0000      -0.269574        -7.3355
 131   0.0000      -0.014262        -0.3881
 132   0.0000      -0.001113        -0.0303
 133   0.0000       0.032480         0.8838
 134   0.0000       0.051648         1.4054
 135   0.0000       0.055086         1.4990

MULLIKEN ATOMIC CHARGES
-----------------------
   0 C :   -0.174826
   1 C :   -0.130144
   2 C :   -0.030861
   3 C :    0.174310
   4 C :   -0.237949
   5 C :   -0.082752
   6 C :   -0.048875
   7 C :    0.183187
   8 N :   -0.301546
   9 C :   -0.242969
  10 C :   -0.073058
  11 C :   -0.297706
  12 C :    0.216047
  13 H :    0.140370
  14 H :    0.236006
  15 H :    0.124349
  16 H :    0.149341
  17 H :    0.114655
  18 H :    0.122557
  19 H :    0.119274
  20 N :   -0.269503
  21 C :    0.078411
  22 C :   -0.228758
  23 S :    0.048820
  24 C :    0.256960
  25 C :    0.126995
  26 S :   -0.005454
  27 C :   -0.000478
  28 C :   -0.121015
  29 N :   -0.247521
  30 H :    0.173253
  31 H :    0.158231
  32 S :    0.073542
  33 C :   -0.171448
  34 C :    0.010417
  35 C :   -0.229229
  36 C :   -0.178047
  37 C :    0.048970
  38 C :    0.097780
  39 C :   -0.119862
  40 C :   -0.367194
  41 C :    0.011444
  42 S :    0.053807
  43 H :    0.165928
  44 H :    0.137054
  45 H :    0.127984
  46 H :    0.127881
  47 H :    0.117738
  48 H :    0.163882
Sum of atomic charges:   -0.0000000

LOEWDIN ATOMIC CHARGES
----------------------
   0 C :   -0.159264
   1 C :   -0.112842
   2 C :   -0.084288
   3 C :   -0.145083
   4 C :   -0.133192
   5 C :   -0.141778
   6 C :   -0.047388
   7 C :   -0.143815
   8 N :    0.200656
   9 C :   -0.128688
  10 C :   -0.140828
  11 C :   -0.115038
  12 C :   -0.108813
  13 H :    0.151035
  14 H :    0.193111
  15 H :    0.146680
  16 H :    0.142239
  17 H :    0.143083
  18 H :    0.144702
  19 H :    0.143833
  20 N :    0.155853
  21 C :   -0.280962
  22 C :   -0.368123
  23 S :    0.685372
  24 C :   -0.415783
  25 C :   -0.385320
  26 S :    0.730092
  27 C :   -0.321100
  28 C :   -0.226489
  29 N :    0.126343
  30 H :    0.132426
  31 H :    0.143989
  32 S :    0.696164
  33 C :   -0.333382
  34 C :   -0.142217
  35 C :   -0.178722
  36 C :   -0.373132
  37 C :   -0.319134
  38 C :   -0.140457
  39 C :   -0.151695
  40 C :   -0.101369
  41 C :   -0.357122
  42 S :    0.725282
  43 H :    0.158115
  44 H :    0.145261
  45 H :    0.159507
  46 H :    0.159469
  47 H :    0.143922
  48 H :    0.128888

  Mayer bond orders larger than 0.1
B(  0-C ,  1-C ) :   1.5259 B(  0-C ,  5-C ) :   1.3614 B(  0-C , 19-H ) :   0.9830
B(  1-C ,  2-C ) :   1.2688 B(  1-C , 16-H ) :   0.9324 B(  2-C ,  3-C ) :   1.3813
B(  2-C ,  6-C ) :   1.0822 B(  3-C ,  4-C ) :   1.3099 B(  3-C ,  8-N ) :   1.1196
B(  4-C ,  5-C ) :   1.4807 B(  4-C , 17-H ) :   0.9768 B(  5-C , 18-H ) :   0.9822
B(  6-C ,  7-C ) :   1.3350 B(  6-C , 12-C ) :   1.2080 B(  7-C ,  8-N ) :   1.1499
B(  7-C ,  9-C ) :   1.2852 B(  8-N , 14-H ) :   0.9129 B(  9-C , 10-C ) :   1.4710
B(  9-C , 47-H ) :   0.9733 B( 10-C , 11-C ) :   1.3973 B( 10-C , 15-H ) :   0.9808
B( 11-C , 12-C ) :   1.4441 B( 11-C , 13-H ) :   0.9596 B( 12-C , 27-C ) :   0.8145
B( 20-N , 21-C ) :   1.2620 B( 20-N , 24-C ) :   1.6715 B( 21-C , 22-C ) :   1.6479
B( 21-C , 25-C ) :   1.0158 B( 22-C , 23-S ) :   1.2641 B( 22-C , 30-H ) :   0.9310
B( 23-S , 24-C ) :   1.2475 B( 24-C , 41-C ) :   0.9674 B( 24-C , 42-S ) :  -0.1158
B( 25-C , 26-S ) :   1.2943 B( 25-C , 29-N ) :   1.6263 B( 26-S , 27-C ) :   1.2036
B( 27-C , 28-C ) :   1.6213 B( 28-C , 29-N ) :   1.3229 B( 28-C , 31-H ) :   0.9626
B( 32-S , 33-C ) :   1.3379 B( 32-S , 35-C ) :   0.1467 B( 32-S , 36-C ) :   1.2264
B( 33-C , 34-C ) :   1.5373 B( 33-C , 37-C ) :   0.9223 B( 34-C , 35-C ) :   1.2076
B( 34-C , 39-C ) :   1.0762 B( 35-C , 36-C ) :   1.7190 B( 35-C , 44-H ) :   0.9630
B( 36-C , 48-H ) :   0.9404 B( 37-C , 38-C ) :   1.4954 B( 37-C , 42-S ) :   1.3427
B( 38-C , 39-C ) :   1.0935 B( 38-C , 40-C ) :   1.2135 B( 38-C , 41-C ) :  -0.1402
B( 39-C , 45-H ) :   0.8970 B( 39-C , 46-H ) :   0.8979 B( 40-C , 41-C ) :   1.6317
B( 40-C , 42-S ) :   0.1475 B( 40-C , 43-H ) :   0.9579 B( 41-C , 42-S ) :   1.2351

Dispersion correction           -0.022993371
FINAL SINGLE POINT ENERGY     -2795.035384081706

DIPOLE MOMENT
-------------
                                X             Y             Z
Electronic contribution:     18.23043     -13.74693       2.27496
Nuclear contribution   :    -18.82787      13.95012      -2.23450
                        -----------------------------------------
Total Dipole Moment    :     -0.59744       0.20319       0.04046
                        -----------------------------------------
Magnitude (a.u.)       :      0.63234
Magnitude (Debye)      :      1.60729

                             ****ORCA TERMINATED NORMALLY****
TOTAL RUN TIME: 0 days 0 hours 13 minutes 28 seconds 411 msec
