                         Program Version 4.0.0 -  RELEASE  -
|  1> #
|  2> !wB97X-D3 def2-TZVP def2/J RIJCOSX Grid5 FinalGrid6 TightSCF
|  3> %pal
|  4>  nprocs 24
|  5> end
|  6> %tddft
|  7>   Mode sTDDFT
|  8>   nroots 2
|  9>   Ethresh 10.0
| 10>   maxcore 5000
| 11>   triplets true
| 12> end
| 13> * xyz 0 1
| 14> C -6.35603904 -2.13969860 -0.92497198
| 15> C -5.81732674 -0.86502262 -1.08053339
| 16> C -6.63785961 0.17316668 -1.55995075
| 17> C -8.00758803 -0.11251985 -1.82234898
| 18> C -8.55202079 -1.39719780 -1.67143569
| 19> C -7.70300458 -2.40743995 -1.22687319
| 20> C -6.45579515 1.59311592 -1.81474735
| 21> C -7.73954203 2.09738536 -2.17443191
| 22> N -8.64787051 1.05450561 -2.20011370
| 23> C -7.98073040 3.45609176 -2.42784537
| 24> C -6.90556580 4.33271128 -2.29868435
| 25> C -5.62746149 3.86334415 -1.96589840
| 26> C -5.36611428 2.49905108 -1.74316258
| 27> H -4.80175180 4.56609289 -1.90163662
| 28> H -9.63459087 1.14253282 -2.41010045
| 29> H -7.05328406 5.39479361 -2.47288696
| 30> H -4.77972454 -0.68525911 -0.81414789
| 31> H -9.59971392 -1.59235547 -1.88380461
| 32> H -8.08965980 -3.41458084 -1.09667777
| 33> H -5.72544194 -2.94431612 -0.55734061
| 34> S 1.08936063 1.19462821 -0.95941422
| 35> C -0.40863427 0.62498005 -1.71315993
| 36> N -0.25085676 -0.48004681 -2.43271383
| 37> N 1.03327937 -0.94382900 -2.44297201
| 38> C 1.86795489 -0.19819354 -1.72676075
| 39> C -1.67366240 1.30435485 -1.54907309
| 40> N -1.83418498 2.40107989 -0.82157281
| 41> N -3.12206541 2.86331465 -0.81744951
| 42> C -3.96374343 2.11397899 -1.51447799
| 43> S -3.16925105 0.73405752 -2.30368966
| 44> C 10.37920524 -1.52033274 7.74285719
| 45> C 10.94554005 -2.60318953 7.19079815
| 46> S 11.26789378 -2.81879390 5.44455070
| 47> C 9.94939923 -1.86714083 4.70620339
| 48> C 9.37638801 -0.77163803 5.26476331
| 49> S 9.83209586 -0.07376988 6.84413453
| 50> S 9.28091873 -2.44330748 3.15478732
| 51> C 8.06388876 -1.14266940 2.99872408
| 52> S 8.01389381 -0.02073029 4.39003913
| 53> C 7.24636467 -1.02106234 1.92186262
| 54> S 6.02307753 0.27589506 1.76926044
| 55> C 5.48110272 -0.19356231 0.13686194
| 56> C 6.05553693 -1.28764868 -0.42320540
| 57> S 7.29071873 -2.14927693 0.53333460
| 58> S 4.18644325 0.77259090 -0.62316063
| 59> C 3.29092113 -0.46568077 -1.57914601
| 60> C 3.88077593 -1.55422619 -2.13383666
| 61> S 5.59978970 -1.97869984 -2.00534996
| 62> H 3.27351451 -2.25105993 -2.70967038
| 63> H 11.23782817 -3.44706358 7.81299770
| 64> H -8.97061000 3.81070737 -2.70093683
| 65> H 10.20800205 -1.47796630 8.81690711
| 66> *
| 67> $new_job
| 68> #
| 69> !wB97X-D3 def2-TZVP def2/J RIJCOSX Grid5 FinalGrid6 TightSCF
| 70> %pal
| 71>  nprocs 24
| 72> end
| 73> %elprop
| 74>    dipole     true
| 75>    quadrupole true
| 76> end
| 77> %tddft
| 78>   Mode sTDDFT
| 79>   nroots 2
| 80>   Ethresh 10.0
| 81>   maxcore 5000
| 82> end
| 83> * xyz 0 1
| 84> C -6.35603904 -2.13969860 -0.92497198
| 85> C -5.81732674 -0.86502262 -1.08053339
| 86> C -6.63785961 0.17316668 -1.55995075
| 87> C -8.00758803 -0.11251985 -1.82234898
| 88> C -8.55202079 -1.39719780 -1.67143569
| 89> C -7.70300458 -2.40743995 -1.22687319
| 90> C -6.45579515 1.59311592 -1.81474735
| 91> C -7.73954203 2.09738536 -2.17443191
| 92> N -8.64787051 1.05450561 -2.20011370
| 93> C -7.98073040 3.45609176 -2.42784537
| 94> C -6.90556580 4.33271128 -2.29868435
| 95> C -5.62746149 3.86334415 -1.96589840
| 96> C -5.36611428 2.49905108 -1.74316258
| 97> H -4.80175180 4.56609289 -1.90163662
| 98> H -9.63459087 1.14253282 -2.41010045
| 99> H -7.05328406 5.39479361 -2.47288696
|100> H -4.77972454 -0.68525911 -0.81414789
|101> H -9.59971392 -1.59235547 -1.88380461
|102> H -8.08965980 -3.41458084 -1.09667777
|103> H -5.72544194 -2.94431612 -0.55734061
|104> S 1.08936063 1.19462821 -0.95941422
|105> C -0.40863427 0.62498005 -1.71315993
|106> N -0.25085676 -0.48004681 -2.43271383
|107> N 1.03327937 -0.94382900 -2.44297201
|108> C 1.86795489 -0.19819354 -1.72676075
|109> C -1.67366240 1.30435485 -1.54907309
|110> N -1.83418498 2.40107989 -0.82157281
|111> N -3.12206541 2.86331465 -0.81744951
|112> C -3.96374343 2.11397899 -1.51447799
|113> S -3.16925105 0.73405752 -2.30368966
|114> C 10.37920524 -1.52033274 7.74285719
|115> C 10.94554005 -2.60318953 7.19079815
|116> S 11.26789378 -2.81879390 5.44455070
|117> C 9.94939923 -1.86714083 4.70620339
|118> C 9.37638801 -0.77163803 5.26476331
|119> S 9.83209586 -0.07376988 6.84413453
|120> S 9.28091873 -2.44330748 3.15478732
|121> C 8.06388876 -1.14266940 2.99872408
|122> S 8.01389381 -0.02073029 4.39003913
|123> C 7.24636467 -1.02106234 1.92186262
|124> S 6.02307753 0.27589506 1.76926044
|125> C 5.48110272 -0.19356231 0.13686194
|126> C 6.05553693 -1.28764868 -0.42320540
|127> S 7.29071873 -2.14927693 0.53333460
|128> S 4.18644325 0.77259090 -0.62316063
|129> C 3.29092113 -0.46568077 -1.57914601
|130> C 3.88077593 -1.55422619 -2.13383666
|131> S 5.59978970 -1.97869984 -2.00534996
|132> H 3.27351451 -2.25105993 -2.70967038
|133> H 11.23782817 -3.44706358 7.81299770
|134> H -8.97061000 3.81070737 -2.70093683
|135> H 10.20800205 -1.47796630 8.81690711
|136> *
|137>
|138>                          ****END OF INPUT****
 Total Charge           Charge          ....    0
 Multiplicity           Mult            ....    1
 Number of Electrons    NEL             ....  362
Dispersion correction           -0.025551956
FINAL SINGLE POINT ENERGY     -5253.109618553707

CARTESIAN COORDINATES (ANGSTROEM)
---------------------------------
  C     -6.356039   -2.139699   -0.924972
  C     -5.817327   -0.865023   -1.080533
  C     -6.637860    0.173167   -1.559951
  C     -8.007588   -0.112520   -1.822349
  C     -8.552021   -1.397198   -1.671436
  C     -7.703005   -2.407440   -1.226873
  C     -6.455795    1.593116   -1.814747
  C     -7.739542    2.097385   -2.174432
  N     -8.647871    1.054506   -2.200114
  C     -7.980730    3.456092   -2.427845
  C     -6.905566    4.332711   -2.298684
  C     -5.627461    3.863344   -1.965898
  C     -5.366114    2.499051   -1.743163
  H     -4.801752    4.566093   -1.901637
  H     -9.634591    1.142533   -2.410100
  H     -7.053284    5.394794   -2.472887
  H     -4.779725   -0.685259   -0.814148
  H     -9.599714   -1.592355   -1.883805
  H     -8.089660   -3.414581   -1.096678
  H     -5.725442   -2.944316   -0.557341
  S      1.089361    1.194628   -0.959414
  C     -0.408634    0.624980   -1.713160
  N     -0.250857   -0.480047   -2.432714
  N      1.033279   -0.943829   -2.442972
  C      1.867955   -0.198194   -1.726761
  C     -1.673662    1.304355   -1.549073
  N     -1.834185    2.401080   -0.821573
  N     -3.122065    2.863315   -0.817450
  C     -3.963743    2.113979   -1.514478
  S     -3.169251    0.734058   -2.303690
  C     10.379205   -1.520333    7.742857
  C     10.945540   -2.603190    7.190798
  S     11.267894   -2.818794    5.444551
  C      9.949399   -1.867141    4.706203
  C      9.376388   -0.771638    5.264763
  S      9.832096   -0.073770    6.844135
  S      9.280919   -2.443307    3.154787
  C      8.063889   -1.142669    2.998724
  S      8.013894   -0.020730    4.390039
  C      7.246365   -1.021062    1.921863
  S      6.023078    0.275895    1.769260
  C      5.481103   -0.193562    0.136862
  C      6.055537   -1.287649   -0.423205
  S      7.290719   -2.149277    0.533335
  S      4.186443    0.772591   -0.623161
  C      3.290921   -0.465681   -1.579146
  C      3.880776   -1.554226   -2.133837
  S      5.599790   -1.978700   -2.005350
  H      3.273515   -2.251060   -2.709670
  H     11.237828   -3.447064    7.812998
  H     -8.970610    3.810707   -2.700937
  H     10.208002   -1.477966    8.816907

 Multiplicity           Mult            ....    1
 Number of Electrons    NEL             ....  362
 Basis Dimension        Dim             .... 1397

ORBITAL ENERGIES
----------------

  NO   OCC          E(Eh)            E(eV)
   0   2.0000     -89.018724     -2422.3226
   1   2.0000     -89.010694     -2422.1041
   2   2.0000     -89.002665     -2421.8856
   3   2.0000     -89.002549     -2421.8825
   4   2.0000     -89.002252     -2421.8744
   5   2.0000     -89.001074     -2421.8423
   6   2.0000     -88.999682     -2421.8045
   7   2.0000     -88.999651     -2421.8036
   8   2.0000     -88.992125     -2421.5988
   9   2.0000     -88.992073     -2421.5974
  10   2.0000     -14.481421      -394.0595
  11   2.0000     -14.476756      -393.9325
  12   2.0000     -14.476594      -393.9282
  13   2.0000     -14.475475      -393.8977
  14   2.0000     -14.467045      -393.6683
  15   2.0000     -10.388185      -282.6769
  16   2.0000     -10.386100      -282.6202
  17   2.0000     -10.381765      -282.5022
  18   2.0000     -10.376795      -282.3670
  19   2.0000     -10.376235      -282.3517
  20   2.0000     -10.375965      -282.3444
  21   2.0000     -10.370979      -282.2087
  22   2.0000     -10.370246      -282.1887
  23   2.0000     -10.369604      -282.1713
  24   2.0000     -10.368878      -282.1515
  25   2.0000     -10.365600      -282.0623
  26   2.0000     -10.355448      -281.7861
  27   2.0000     -10.342922      -281.4452
  28   2.0000     -10.342095      -281.4227
  29   2.0000     -10.338451      -281.3235
  30   2.0000     -10.334519      -281.2166
  31   2.0000     -10.321423      -280.8602
  32   2.0000     -10.308507      -280.5087
  33   2.0000     -10.301235      -280.3109
  34   2.0000     -10.299383      -280.2605
  35   2.0000     -10.296609      -280.1850
  36   2.0000     -10.293860      -280.1102
  37   2.0000     -10.293033      -280.0877
  38   2.0000     -10.292646      -280.0771
  39   2.0000     -10.292293      -280.0675
  40   2.0000     -10.282706      -279.8066
  41   2.0000      -8.114661      -220.8112
  42   2.0000      -8.106960      -220.6016
  43   2.0000      -8.098636      -220.3751
  44   2.0000      -8.098550      -220.3728
  45   2.0000      -8.098257      -220.3648
  46   2.0000      -8.097463      -220.3432
  47   2.0000      -8.095726      -220.2959
  48   2.0000      -8.095683      -220.2947
  49   2.0000      -8.088306      -220.0940
  50   2.0000      -8.088256      -220.0926
  51   2.0000      -6.067779      -165.1126
  52   2.0000      -6.063753      -165.0031
  53   2.0000      -6.061812      -164.9503
  54   2.0000      -6.060032      -164.9019
  55   2.0000      -6.056070      -164.7940
  56   2.0000      -6.054080      -164.7399
  57   2.0000      -6.052969      -164.7097
  58   2.0000      -6.052845      -164.7063
  59   2.0000      -6.052606      -164.6998
  60   2.0000      -6.051789      -164.6775
  61   2.0000      -6.050054      -164.6303
  62   2.0000      -6.050006      -164.6290
  63   2.0000      -6.048698      -164.5934
  64   2.0000      -6.048534      -164.5890
  65   2.0000      -6.048307      -164.5828
  66   2.0000      -6.047670      -164.5655
  67   2.0000      -6.045764      -164.5136
  68   2.0000      -6.045714      -164.5122
  69   2.0000      -6.043548      -164.4533
  70   2.0000      -6.043531      -164.4529
  71   2.0000      -6.043162      -164.4428
  72   2.0000      -6.042648      -164.4288
  73   2.0000      -6.042608      -164.4277
  74   2.0000      -6.042101      -164.4139
  75   2.0000      -6.040665      -164.3748
  76   2.0000      -6.040631      -164.3739
  77   2.0000      -6.038378      -164.3126
  78   2.0000      -6.038329      -164.3113
  79   2.0000      -6.033113      -164.1693
  80   2.0000      -6.033058      -164.1679
  81   2.0000      -1.163890       -31.6710
  82   2.0000      -1.152809       -31.3695
  83   2.0000      -1.113923       -30.3114
  84   2.0000      -1.038945       -28.2711
  85   2.0000      -1.025815       -27.9139
  86   2.0000      -1.003938       -27.3186
  87   2.0000      -0.994564       -27.0635
  88   2.0000      -0.980208       -26.6728
  89   2.0000      -0.974250       -26.5107
  90   2.0000      -0.970705       -26.4142
  91   2.0000      -0.950409       -25.8620
  92   2.0000      -0.941134       -25.6096
  93   2.0000      -0.930066       -25.3084
  94   2.0000      -0.925220       -25.1765
  95   2.0000      -0.921624       -25.0787
  96   2.0000      -0.913472       -24.8568
  97   2.0000      -0.908008       -24.7081
  98   2.0000      -0.880160       -23.9504
  99   2.0000      -0.877970       -23.8908
 100   2.0000      -0.874204       -23.7883
 101   2.0000      -0.863551       -23.4984
 102   2.0000      -0.854331       -23.2475
 103   2.0000      -0.847580       -23.0638
 104   2.0000      -0.823638       -22.4123
 105   2.0000      -0.790776       -21.5181
 106   2.0000      -0.781211       -21.2578
 107   2.0000      -0.773125       -21.0378
 108   2.0000      -0.761435       -20.7197
 109   2.0000      -0.754035       -20.5183
 110   2.0000      -0.733600       -19.9623
 111   2.0000      -0.727379       -19.7930
 112   2.0000      -0.721693       -19.6383
 113   2.0000      -0.717849       -19.5337
 114   2.0000      -0.697790       -18.9878
 115   2.0000      -0.679302       -18.4847
 116   2.0000      -0.669830       -18.2270
 117   2.0000      -0.655797       -17.8451
 118   2.0000      -0.650286       -17.6952
 119   2.0000      -0.636453       -17.3188
 120   2.0000      -0.626956       -17.0603
 121   2.0000      -0.621020       -16.8988
 122   2.0000      -0.615932       -16.7604
 123   2.0000      -0.612172       -16.6580
 124   2.0000      -0.608443       -16.5566
 125   2.0000      -0.595812       -16.2129
 126   2.0000      -0.581193       -15.8151
 127   2.0000      -0.580071       -15.7845
 128   2.0000      -0.574762       -15.6401
 129   2.0000      -0.571795       -15.5593
 130   2.0000      -0.564142       -15.3511
 131   2.0000      -0.557089       -15.1592
 132   2.0000      -0.550821       -14.9886
 133   2.0000      -0.549280       -14.9467
 134   2.0000      -0.546994       -14.8845
 135   2.0000      -0.542391       -14.7592
 136   2.0000      -0.539000       -14.6669
 137   2.0000      -0.537443       -14.6246
 138   2.0000      -0.532109       -14.4794
 139   2.0000      -0.529073       -14.3968
 140   2.0000      -0.527051       -14.3418
 141   2.0000      -0.524894       -14.2831
 142   2.0000      -0.521962       -14.2033
 143   2.0000      -0.513966       -13.9857
 144   2.0000      -0.511096       -13.9076
 145   2.0000      -0.496311       -13.5053
 146   2.0000      -0.476581       -12.9684
 147   2.0000      -0.475998       -12.9526
 148   2.0000      -0.473911       -12.8958
 149   2.0000      -0.472287       -12.8516
 150   2.0000      -0.467759       -12.7284
 151   2.0000      -0.463875       -12.6227
 152   2.0000      -0.461000       -12.5444
 153   2.0000      -0.455674       -12.3995
 154   2.0000      -0.452902       -12.3241
 155   2.0000      -0.448754       -12.2112
 156   2.0000      -0.447370       -12.1736
 157   2.0000      -0.443830       -12.0772
 158   2.0000      -0.438951       -11.9445
 159   2.0000      -0.430723       -11.7206
 160   2.0000      -0.427411       -11.6304
 161   2.0000      -0.425099       -11.5675
 162   2.0000      -0.418961       -11.4005
 163   2.0000      -0.415004       -11.2928
 164   2.0000      -0.410104       -11.1595
 165   2.0000      -0.407086       -11.0774
 166   2.0000      -0.399059       -10.8589
 167   2.0000      -0.395486       -10.7617
 168   2.0000      -0.389051       -10.5866
 169   2.0000      -0.384377       -10.4594
 170   2.0000      -0.375938       -10.2298
 171   2.0000      -0.372753       -10.1431
 172   2.0000      -0.370427       -10.0798
 173   2.0000      -0.365062        -9.9338
 174   2.0000      -0.354035        -9.6338
 175   2.0000      -0.338525        -9.2117
 176   2.0000      -0.313474        -8.5301
 177   2.0000      -0.307221        -8.3599
 178   2.0000      -0.298677        -8.1274
 179   2.0000      -0.295316        -8.0360
 180   2.0000      -0.260581        -7.0908
 181   0.0000      -0.041564        -1.1310
 182   0.0000      -0.009382        -0.2553
 183   0.0000       0.010648         0.2898
 184   0.0000       0.015411         0.4194
 185   0.0000       0.020508         0.5581

MULLIKEN ATOMIC CHARGES
-----------------------
   0 C :   -0.173761
   1 C :   -0.127050
   2 C :   -0.025498
   3 C :    0.168485
   4 C :   -0.236158
   5 C :   -0.078171
   6 C :   -0.042972
   7 C :    0.176926
   8 N :   -0.299639
   9 C :   -0.231970
  10 C :   -0.063025
  11 C :   -0.282325
  12 C :    0.170556
  13 H :    0.148180
  14 H :    0.238679
  15 H :    0.129510
  16 H :    0.140657
  17 H :    0.117598
  18 H :    0.126628
  19 H :    0.122835
  20 S :    0.080491
  21 C :    0.094947
  22 N :   -0.173996
  23 N :   -0.144092
  24 C :    0.248440
  25 C :    0.130137
  26 N :   -0.165441
  27 N :   -0.153534
  28 C :    0.066831
  29 S :    0.064784
  30 C :   -0.165936
  31 C :   -0.164241
  32 S :    0.010992
  33 C :   -0.023048
  34 C :   -0.022145
  35 S :    0.011701
  36 S :    0.014464
  37 C :   -0.002286
  38 S :    0.015120
  39 C :   -0.000758
  40 S :    0.017224
  41 C :   -0.017949
  42 C :   -0.022106
  43 S :    0.016289
  44 S :   -0.021189
  45 C :   -0.232146
  46 C :   -0.126951
  47 S :    0.032038
  48 H :    0.196445
  49 H :    0.167119
  50 H :    0.122001
  51 H :    0.167312
Sum of atomic charges:   -0.0000000

LOEWDIN ATOMIC CHARGES
----------------------
   0 C :   -0.154721
   1 C :   -0.113537
   2 C :   -0.086442
   3 C :   -0.143467
   4 C :   -0.130080
   5 C :   -0.137417
   6 C :   -0.045934
   7 C :   -0.143163
   8 N :    0.202384
   9 C :   -0.118175
  10 C :   -0.136714
  11 C :   -0.097114
  12 C :   -0.115581
  13 H :    0.156335
  14 H :    0.194396
  15 H :    0.148491
  16 H :    0.140766
  17 H :    0.144192
  18 H :    0.146063
  19 H :    0.145525
  20 S :    0.741387
  21 C :   -0.454953
  22 N :    0.048869
  23 N :    0.043039
  24 C :   -0.443809
  25 C :   -0.464025
  26 N :    0.047649
  27 N :    0.050053
  28 C :   -0.382016
  29 S :    0.757994
  30 C :   -0.411916
  31 C :   -0.411924
  32 S :    0.601536
  33 C :   -0.637995
  34 C :   -0.637830
  35 S :    0.601969
  36 S :    0.628142
  37 C :   -0.631580
  38 S :    0.628843
  39 C :   -0.631755
  40 S :    0.631380
  41 C :   -0.637926
  42 C :   -0.635357
  43 S :    0.630033
  44 S :    0.637216
  45 C :   -0.400489
  46 C :   -0.339271
  47 S :    0.633051
  48 H :    0.155244
  49 H :    0.141384
  50 H :    0.145827
  51 H :    0.141422

  Mayer bond orders larger than 0.1
B(  0-C ,  1-C ) :   1.5370 B(  0-C ,  5-C ) :   1.3594 B(  0-C , 19-H ) :   0.9824
B(  1-C ,  2-C ) :   1.2544 B(  1-C , 16-H ) :   0.9334 B(  2-C ,  3-C ) :   1.3875
B(  2-C ,  6-C ) :   1.0795 B(  3-C ,  4-C ) :   1.3100 B(  3-C ,  8-N ) :   1.1242
B(  4-C ,  5-C ) :   1.4879 B(  4-C , 17-H ) :   0.9733 B(  5-C , 18-H ) :   0.9787
B(  6-C ,  7-C ) :   1.3390 B(  6-C , 12-C ) :   1.2114 B(  7-C ,  8-N ) :   1.1522
B(  7-C ,  9-C ) :   1.2885 B(  8-N , 14-H ) :   0.9113 B(  9-C , 10-C ) :   1.4592
B(  9-C , 50-H ) :   0.9712 B( 10-C , 11-C ) :   1.3804 B( 10-C , 15-H ) :   0.9835
B( 11-C , 12-C ) :   1.4625 B( 11-C , 13-H ) :   0.9590 B( 12-C , 28-C ) :   0.8742
B( 20-S , 21-C ) :   1.2871 B( 20-S , 24-C ) :   1.2723 B( 21-C , 22-N ) :   1.6980
B( 21-C , 25-C ) :   0.9333 B( 22-N , 23-N ) :   1.1770 B( 23-N , 24-C ) :   1.6461
B( 24-C , 45-C ) :   0.9368 B( 25-C , 26-N ) :   1.7176 B( 25-C , 29-S ) :   1.2827
B( 26-N , 27-N ) :   1.1587 B( 27-N , 28-C ) :   1.6944 B( 28-C , 29-S ) :   1.2571
B( 30-C , 31-C ) :   1.8914 B( 30-C , 35-S ) :   1.0782 B( 30-C , 51-H ) :   0.9281
B( 31-C , 32-S ) :   1.0765 B( 31-C , 49-H ) :   0.9280 B( 32-S , 33-C ) :   1.0766
B( 33-C , 34-C ) :   1.7350 B( 33-C , 36-S ) :   1.1175 B( 34-C , 35-S ) :   1.0764
B( 34-C , 38-S ) :   1.1188 B( 36-S , 37-C ) :   1.1255 B( 37-C , 38-S ) :   1.1278
B( 37-C , 39-C ) :   1.5576 B( 39-C , 40-S ) :   1.1186 B( 39-C , 43-S ) :   1.1201
B( 40-S , 41-C ) :   1.1255 B( 41-C , 42-C ) :   1.7285 B( 41-C , 44-S ) :   1.0641
B( 42-C , 43-S ) :   1.1223 B( 42-C , 47-S ) :   1.0714 B( 44-S , 45-C ) :   1.1040
B( 45-C , 46-C ) :   1.8087 B( 46-C , 47-S ) :   1.1257 B( 46-C , 48-H ) :   0.9028

Dispersion correction           -0.025551956
FINAL SINGLE POINT ENERGY     -5253.109618358963

DIPOLE MOMENT
-------------
                                X             Y             Z
Electronic contribution:     53.94665      -1.48669       6.24325
Nuclear contribution   :    -55.30747       0.93334      -5.82368
                        -----------------------------------------
Total Dipole Moment    :     -1.36082      -0.55335       0.41958
                        -----------------------------------------
Magnitude (a.u.)       :      1.52776
Magnitude (Debye)      :      3.88327

                             ****ORCA TERMINATED NORMALLY****
TOTAL RUN TIME: 0 days 0 hours 20 minutes 9 seconds 563 msec
