                         Program Version 4.0.0 -  RELEASE  -
|  1> #
|  2> !wB97X-D3 def2-TZVP def2/J RIJCOSX Grid5 FinalGrid6 TightSCF
|  3> %pal
|  4>  nprocs 24
|  5> end
|  6> %tddft
|  7>   Mode sTDDFT
|  8>   nroots 2
|  9>   Ethresh 10.0
| 10>   maxcore 5000
| 11>   triplets true
| 12> end
| 13> * xyz 0 1
| 14> C -5.73669769 2.29621523 -1.86854425
| 15> C -5.38360056 1.29917769 -0.96217383
| 16> C -6.21407621 0.17106720 -0.82838769
| 17> C -7.40821976 0.10960620 -1.60037622
| 18> C -7.76149745 1.10860647 -2.52035953
| 19> C -6.90376669 2.19890559 -2.64672374
| 20> C -6.20143139 -1.01782125 0.00824155
| 21> C -7.41046851 -1.71502161 -0.27541950
| 22> N -8.10571478 -1.03718884 -1.26136218
| 23> C -7.78912755 -2.88567150 0.39991096
| 24> C -6.93480798 -3.35129609 1.39798160
| 25> C -5.73222809 -2.69232943 1.68869416
| 26> C -5.32229169 -1.54006293 0.99300473
| 27> H -5.07818401 -3.10100668 2.45509376
| 28> H -9.00635593 -1.30978737 -1.63536112
| 29> H -7.19725372 -4.24675894 1.95465161
| 30> H -4.48672439 1.41052124 -0.35994343
| 31> H -8.67528199 1.03831501 -3.10440060
| 32> H -7.14567902 2.99281855 -3.34826280
| 33> H -5.09940797 3.16943536 -1.97675499
| 34> N 0.44649686 0.71310698 2.46199041
| 35> C -0.68726932 0.16215616 3.04539187
| 36> C -0.61684686 0.01286177 4.42160884
| 37> S 0.92002278 0.57836384 5.02206824
| 38> C 1.38282632 0.98922942 3.34997318
| 39> C -1.82493761 -0.20539430 2.21347163
| 40> S -3.31473118 -0.90614099 2.89349592
| 41> C -4.00230798 -0.96059439 1.27012962
| 42> C -3.06774089 -0.48080404 0.37030439
| 43> N -1.86915684 -0.06242037 0.89867291
| 44> H -1.38075396 -0.39242923 5.07341290
| 45> H -3.21677225 -0.45357118 -0.70678176
| 46> C 2.65761315 1.59183331 2.98645037
| 47> C 3.62008835 1.90621822 3.88757325
| 48> S 5.18847758 2.65768533 3.52376315
| 49> C 5.50931211 2.10188855 1.85657929
| 50> C 4.55438097 1.79317578 0.94376350
| 51> S 2.79453924 1.89371738 1.21495196
| 52> S 7.21364044 1.85721824 1.38581898
| 53> C 6.85153871 1.31237572 -0.27932497
| 54> S 5.10454078 1.18059508 -0.63859850
| 55> C 7.81752086 1.01897825 -1.18681767
| 56> S 9.56458289 1.14364584 -0.82405463
| 57> C 10.11179068 0.70505073 -2.46532211
| 58> C 9.15853093 0.39871893 -3.38066230
| 59> S 7.45632554 0.46613681 -2.84894899
| 60> S 11.87189565 0.62626174 -2.75826486
| 61> C 11.98715150 -0.69143515 -3.96242633
| 62> C 11.04490266 -0.99411663 -4.86726084
| 63> S 9.48353541 -0.14128682 -5.05174576
| 64> H 11.19253552 -1.82338677 -5.55664927
| 65> H 3.45325711 1.69697697 4.94449356
| 66> H -8.71767915 -3.39795328 0.16474519
| 67> H 12.90580539 -1.27298580 -3.91130965
| 68> *
| 69> $new_job
| 70> #
| 71> !wB97X-D3 def2-TZVP def2/J RIJCOSX Grid5 FinalGrid6 TightSCF
| 72> %pal
| 73>  nprocs 24
| 74> end
| 75> %elprop
| 76>    dipole     true
| 77>    quadrupole true
| 78> end
| 79> %tddft
| 80>   Mode sTDDFT
| 81>   nroots 2
| 82>   Ethresh 10.0
| 83>   maxcore 5000
| 84> end
| 85> * xyz 0 1
| 86> C -5.73669769 2.29621523 -1.86854425
| 87> C -5.38360056 1.29917769 -0.96217383
| 88> C -6.21407621 0.17106720 -0.82838769
| 89> C -7.40821976 0.10960620 -1.60037622
| 90> C -7.76149745 1.10860647 -2.52035953
| 91> C -6.90376669 2.19890559 -2.64672374
| 92> C -6.20143139 -1.01782125 0.00824155
| 93> C -7.41046851 -1.71502161 -0.27541950
| 94> N -8.10571478 -1.03718884 -1.26136218
| 95> C -7.78912755 -2.88567150 0.39991096
| 96> C -6.93480798 -3.35129609 1.39798160
| 97> C -5.73222809 -2.69232943 1.68869416
| 98> C -5.32229169 -1.54006293 0.99300473
| 99> H -5.07818401 -3.10100668 2.45509376
|100> H -9.00635593 -1.30978737 -1.63536112
|101> H -7.19725372 -4.24675894 1.95465161
|102> H -4.48672439 1.41052124 -0.35994343
|103> H -8.67528199 1.03831501 -3.10440060
|104> H -7.14567902 2.99281855 -3.34826280
|105> H -5.09940797 3.16943536 -1.97675499
|106> N 0.44649686 0.71310698 2.46199041
|107> C -0.68726932 0.16215616 3.04539187
|108> C -0.61684686 0.01286177 4.42160884
|109> S 0.92002278 0.57836384 5.02206824
|110> C 1.38282632 0.98922942 3.34997318
|111> C -1.82493761 -0.20539430 2.21347163
|112> S -3.31473118 -0.90614099 2.89349592
|113> C -4.00230798 -0.96059439 1.27012962
|114> C -3.06774089 -0.48080404 0.37030439
|115> N -1.86915684 -0.06242037 0.89867291
|116> H -1.38075396 -0.39242923 5.07341290
|117> H -3.21677225 -0.45357118 -0.70678176
|118> C 2.65761315 1.59183331 2.98645037
|119> C 3.62008835 1.90621822 3.88757325
|120> S 5.18847758 2.65768533 3.52376315
|121> C 5.50931211 2.10188855 1.85657929
|122> C 4.55438097 1.79317578 0.94376350
|123> S 2.79453924 1.89371738 1.21495196
|124> S 7.21364044 1.85721824 1.38581898
|125> C 6.85153871 1.31237572 -0.27932497
|126> S 5.10454078 1.18059508 -0.63859850
|127> C 7.81752086 1.01897825 -1.18681767
|128> S 9.56458289 1.14364584 -0.82405463
|129> C 10.11179068 0.70505073 -2.46532211
|130> C 9.15853093 0.39871893 -3.38066230
|131> S 7.45632554 0.46613681 -2.84894899
|132> S 11.87189565 0.62626174 -2.75826486
|133> C 11.98715150 -0.69143515 -3.96242633
|134> C 11.04490266 -0.99411663 -4.86726084
|135> S 9.48353541 -0.14128682 -5.05174576
|136> H 11.19253552 -1.82338677 -5.55664927
|137> H 3.45325711 1.69697697 4.94449356
|138> H -8.71767915 -3.39795328 0.16474519
|139> H 12.90580539 -1.27298580 -3.91130965
|140> *
|141>
|142>                          ****END OF INPUT****
 Total Charge           Charge          ....    0
 Multiplicity           Mult            ....    1
 Number of Electrons    NEL             ....  362
Dispersion correction           -0.026798683
FINAL SINGLE POINT ENERGY     -5221.065524741119

CARTESIAN COORDINATES (ANGSTROEM)
---------------------------------
  C     -5.736698    2.296215   -1.868544
  C     -5.383601    1.299178   -0.962174
  C     -6.214076    0.171067   -0.828388
  C     -7.408220    0.109606   -1.600376
  C     -7.761497    1.108606   -2.520360
  C     -6.903767    2.198906   -2.646724
  C     -6.201431   -1.017821    0.008242
  C     -7.410469   -1.715022   -0.275419
  N     -8.105715   -1.037189   -1.261362
  C     -7.789128   -2.885671    0.399911
  C     -6.934808   -3.351296    1.397982
  C     -5.732228   -2.692329    1.688694
  C     -5.322292   -1.540063    0.993005
  H     -5.078184   -3.101007    2.455094
  H     -9.006356   -1.309787   -1.635361
  H     -7.197254   -4.246759    1.954652
  H     -4.486724    1.410521   -0.359943
  H     -8.675282    1.038315   -3.104401
  H     -7.145679    2.992819   -3.348263
  H     -5.099408    3.169435   -1.976755
  N      0.446497    0.713107    2.461990
  C     -0.687269    0.162156    3.045392
  C     -0.616847    0.012862    4.421609
  S      0.920023    0.578364    5.022068
  C      1.382826    0.989229    3.349973
  C     -1.824938   -0.205394    2.213472
  S     -3.314731   -0.906141    2.893496
  C     -4.002308   -0.960594    1.270130
  C     -3.067741   -0.480804    0.370304
  N     -1.869157   -0.062420    0.898673
  H     -1.380754   -0.392429    5.073413
  H     -3.216772   -0.453571   -0.706782
  C      2.657613    1.591833    2.986450
  C      3.620088    1.906218    3.887573
  S      5.188478    2.657685    3.523763
  C      5.509312    2.101889    1.856579
  C      4.554381    1.793176    0.943763
  S      2.794539    1.893717    1.214952
  S      7.213640    1.857218    1.385819
  C      6.851539    1.312376   -0.279325
  S      5.104541    1.180595   -0.638598
  C      7.817521    1.018978   -1.186818
  S      9.564583    1.143646   -0.824055
  C     10.111791    0.705051   -2.465322
  C      9.158531    0.398719   -3.380662
  S      7.456326    0.466137   -2.848949
  S     11.871896    0.626262   -2.758265
  C     11.987151   -0.691435   -3.962426
  C     11.044903   -0.994117   -4.867261
  S      9.483535   -0.141287   -5.051746
  H     11.192536   -1.823387   -5.556649
  H      3.453257    1.696977    4.944494
  H     -8.717679   -3.397953    0.164745
  H     12.905805   -1.272986   -3.911310

 Multiplicity           Mult            ....    1
 Number of Electrons    NEL             ....  362
 Basis Dimension        Dim             .... 1409

ORBITAL ENERGIES
----------------

  NO   OCC          E(Eh)            E(eV)
   0   2.0000     -89.009556     -2422.0731
   1   2.0000     -88.995514     -2421.6911
   2   2.0000     -88.994905     -2421.6745
   3   2.0000     -88.994476     -2421.6628
   4   2.0000     -88.994275     -2421.6573
   5   2.0000     -88.994154     -2421.6541
   6   2.0000     -88.993293     -2421.6306
   7   2.0000     -88.988384     -2421.4970
   8   2.0000     -88.988308     -2421.4950
   9   2.0000     -88.985913     -2421.4298
  10   2.0000     -14.471040      -393.7770
  11   2.0000     -14.447195      -393.1282
  12   2.0000     -14.431941      -392.7131
  13   2.0000     -10.382417      -282.5199
  14   2.0000     -10.366512      -282.0871
  15   2.0000     -10.366503      -282.0869
  16   2.0000     -10.365777      -282.0671
  17   2.0000     -10.365770      -282.0670
  18   2.0000     -10.364462      -282.0313
  19   2.0000     -10.363120      -281.9948
  20   2.0000     -10.362389      -281.9749
  21   2.0000     -10.359008      -281.8829
  22   2.0000     -10.350295      -281.6459
  23   2.0000     -10.349176      -281.6154
  24   2.0000     -10.340130      -281.3693
  25   2.0000     -10.339552      -281.3535
  26   2.0000     -10.338723      -281.3310
  27   2.0000     -10.332601      -281.1644
  28   2.0000     -10.332152      -281.1522
  29   2.0000     -10.328398      -281.0500
  30   2.0000     -10.316082      -280.7149
  31   2.0000     -10.315416      -280.6967
  32   2.0000     -10.299258      -280.2571
  33   2.0000     -10.293604      -280.1032
  34   2.0000     -10.292598      -280.0758
  35   2.0000     -10.292476      -280.0725
  36   2.0000     -10.288578      -279.9664
  37   2.0000     -10.286676      -279.9147
  38   2.0000     -10.286484      -279.9095
  39   2.0000     -10.285939      -279.8946
  40   2.0000     -10.276965      -279.6504
  41   2.0000      -8.105853      -220.5715
  42   2.0000      -8.091541      -220.1820
  43   2.0000      -8.090936      -220.1656
  44   2.0000      -8.090514      -220.1541
  45   2.0000      -8.090297      -220.1482
  46   2.0000      -8.090160      -220.1444
  47   2.0000      -8.089876      -220.1367
  48   2.0000      -8.084573      -219.9924
  49   2.0000      -8.084493      -219.9902
  50   2.0000      -8.081822      -219.9176
  51   2.0000      -6.059105      -164.8766
  52   2.0000      -6.054998      -164.7649
  53   2.0000      -6.052946      -164.7090
  54   2.0000      -6.045850      -164.5159
  55   2.0000      -6.045253      -164.4997
  56   2.0000      -6.044826      -164.4881
  57   2.0000      -6.044618      -164.4824
  58   2.0000      -6.044491      -164.4790
  59   2.0000      -6.042905      -164.4358
  60   2.0000      -6.041594      -164.4001
  61   2.0000      -6.040991      -164.3837
  62   2.0000      -6.040566      -164.3721
  63   2.0000      -6.040338      -164.3659
  64   2.0000      -6.040190      -164.3619
  65   2.0000      -6.039096      -164.3322
  66   2.0000      -6.038923      -164.3274
  67   2.0000      -6.038827      -164.3248
  68   2.0000      -6.037065      -164.2769
  69   2.0000      -6.036445      -164.2600
  70   2.0000      -6.036306      -164.2562
  71   2.0000      -6.035871      -164.2444
  72   2.0000      -6.035446      -164.2328
  73   2.0000      -6.035227      -164.2269
  74   2.0000      -6.035088      -164.2231
  75   2.0000      -6.034649      -164.2112
  76   2.0000      -6.034571      -164.2090
  77   2.0000      -6.032020      -164.1396
  78   2.0000      -6.029389      -164.0680
  79   2.0000      -6.029309      -164.0658
  80   2.0000      -6.026254      -163.9827
  81   2.0000      -1.107833       -30.1457
  82   2.0000      -1.102684       -30.0056
  83   2.0000      -1.076423       -29.2910
  84   2.0000      -1.030948       -28.0535
  85   2.0000      -1.018076       -27.7032
  86   2.0000      -0.985613       -26.8199
  87   2.0000      -0.981387       -26.7049
  88   2.0000      -0.967917       -26.3384
  89   2.0000      -0.964343       -26.2411
  90   2.0000      -0.935365       -25.4526
  91   2.0000      -0.930325       -25.3154
  92   2.0000      -0.922801       -25.1107
  93   2.0000      -0.921771       -25.0827
  94   2.0000      -0.918760       -25.0007
  95   2.0000      -0.905636       -24.6436
  96   2.0000      -0.900736       -24.5103
  97   2.0000      -0.877122       -23.8677
  98   2.0000      -0.870162       -23.6783
  99   2.0000      -0.868614       -23.6362
 100   2.0000      -0.858401       -23.3583
 101   2.0000      -0.849509       -23.1163
 102   2.0000      -0.842511       -22.9259
 103   2.0000      -0.830265       -22.5926
 104   2.0000      -0.812302       -22.1039
 105   2.0000      -0.778872       -21.1942
 106   2.0000      -0.768707       -20.9176
 107   2.0000      -0.755021       -20.5452
 108   2.0000      -0.748287       -20.3619
 109   2.0000      -0.735111       -20.0034
 110   2.0000      -0.720081       -19.5944
 111   2.0000      -0.718934       -19.5632
 112   2.0000      -0.714151       -19.4330
 113   2.0000      -0.707249       -19.2452
 114   2.0000      -0.681065       -18.5327
 115   2.0000      -0.673144       -18.3172
 116   2.0000      -0.653498       -17.7826
 117   2.0000      -0.647494       -17.6192
 118   2.0000      -0.643433       -17.5087
 119   2.0000      -0.624146       -16.9839
 120   2.0000      -0.622306       -16.9338
 121   2.0000      -0.616267       -16.7695
 122   2.0000      -0.613552       -16.6956
 123   2.0000      -0.606717       -16.5096
 124   2.0000      -0.604925       -16.4609
 125   2.0000      -0.591464       -16.0946
 126   2.0000      -0.578973       -15.7547
 127   2.0000      -0.575389       -15.6571
 128   2.0000      -0.569994       -15.5103
 129   2.0000      -0.560529       -15.2528
 130   2.0000      -0.555613       -15.1190
 131   2.0000      -0.552953       -15.0466
 132   2.0000      -0.545873       -14.8540
 133   2.0000      -0.540210       -14.6999
 134   2.0000      -0.537698       -14.6315
 135   2.0000      -0.535396       -14.5689
 136   2.0000      -0.532158       -14.4808
 137   2.0000      -0.529521       -14.4090
 138   2.0000      -0.526980       -14.3399
 139   2.0000      -0.522240       -14.2109
 140   2.0000      -0.518472       -14.1083
 141   2.0000      -0.514290       -13.9945
 142   2.0000      -0.511556       -13.9201
 143   2.0000      -0.506710       -13.7883
 144   2.0000      -0.502358       -13.6699
 145   2.0000      -0.487381       -13.2623
 146   2.0000      -0.485354       -13.2071
 147   2.0000      -0.476478       -12.9656
 148   2.0000      -0.472163       -12.8482
 149   2.0000      -0.467271       -12.7151
 150   2.0000      -0.464512       -12.6400
 151   2.0000      -0.458012       -12.4632
 152   2.0000      -0.457496       -12.4491
 153   2.0000      -0.455928       -12.4064
 154   2.0000      -0.454889       -12.3781
 155   2.0000      -0.446036       -12.1373
 156   2.0000      -0.442828       -12.0500
 157   2.0000      -0.440280       -11.9806
 158   2.0000      -0.439419       -11.9572
 159   2.0000      -0.435657       -11.8548
 160   2.0000      -0.432805       -11.7772
 161   2.0000      -0.420555       -11.4439
 162   2.0000      -0.417310       -11.3556
 163   2.0000      -0.412854       -11.2343
 164   2.0000      -0.405178       -11.0255
 165   2.0000      -0.400309       -10.8930
 166   2.0000      -0.388007       -10.5582
 167   2.0000      -0.386982       -10.5303
 168   2.0000      -0.379907       -10.3378
 169   2.0000      -0.374367       -10.1870
 170   2.0000      -0.369601       -10.0574
 171   2.0000      -0.366088        -9.9618
 172   2.0000      -0.358113        -9.7447
 173   2.0000      -0.358006        -9.7418
 174   2.0000      -0.344002        -9.3608
 175   2.0000      -0.318002        -8.6533
 176   2.0000      -0.306087        -8.3290
 177   2.0000      -0.299239        -8.1427
 178   2.0000      -0.290718        -7.9108
 179   2.0000      -0.282668        -7.6918
 180   2.0000      -0.253886        -6.9086
 181   0.0000      -0.021286        -0.5792
 182   0.0000      -0.004918        -0.1338
 183   0.0000       0.017404         0.4736
 184   0.0000       0.023165         0.6304
 185   0.0000       0.028686         0.7806

MULLIKEN ATOMIC CHARGES
-----------------------
   0 C :   -0.157032
   1 C :   -0.216055
   2 C :   -0.044459
   3 C :    0.172254
   4 C :   -0.229591
   5 C :   -0.089018
   6 C :   -0.020912
   7 C :    0.178859
   8 N :   -0.301134
   9 C :   -0.238332
  10 C :   -0.083438
  11 C :   -0.270231
  12 C :    0.219712
  13 H :    0.128838
  14 H :    0.236860
  15 H :    0.124870
  16 H :    0.211871
  17 H :    0.115290
  18 H :    0.124215
  19 H :    0.122825
  20 N :   -0.258835
  21 C :    0.058262
  22 C :   -0.222720
  23 S :    0.060240
  24 C :    0.217098
  25 C :    0.158012
  26 S :    0.004344
  27 C :    0.052189
  28 C :   -0.236244
  29 N :   -0.232164
  30 H :    0.175423
  31 H :    0.193966
  32 C :   -0.142234
  33 C :   -0.118375
  34 S :    0.018171
  35 C :   -0.013273
  36 C :   -0.039708
  37 S :    0.034146
  38 S :    0.007991
  39 C :    0.000735
  40 S :    0.019622
  41 C :   -0.004636
  42 S :    0.011562
  43 C :   -0.020347
  44 C :   -0.022824
  45 S :    0.014665
  46 S :    0.007270
  47 C :   -0.165443
  48 C :   -0.164733
  49 S :    0.009503
  50 H :    0.166205
  51 H :    0.163194
  52 H :    0.117913
  53 H :    0.165635
Sum of atomic charges:    0.0000000

LOEWDIN ATOMIC CHARGES
----------------------
   0 C :   -0.156360
   1 C :   -0.104467
   2 C :   -0.081727
   3 C :   -0.144989
   4 C :   -0.132293
   5 C :   -0.140426
   6 C :   -0.040735
   7 C :   -0.143361
   8 N :    0.200825
   9 C :   -0.127747
  10 C :   -0.140814
  11 C :   -0.126169
  12 C :   -0.111109
  13 H :    0.145406
  14 H :    0.193374
  15 H :    0.146836
  16 H :    0.154738
  17 H :    0.143349
  18 H :    0.145138
  19 H :    0.145017
  20 N :    0.161006
  21 C :   -0.275115
  22 C :   -0.356825
  23 S :    0.696417
  24 C :   -0.416467
  25 C :   -0.387911
  26 S :    0.715217
  27 C :   -0.317495
  28 C :   -0.227141
  29 N :    0.130579
  30 H :    0.134313
  31 H :    0.150208
  32 C :   -0.387975
  33 C :   -0.371538
  34 S :    0.620279
  35 C :   -0.639181
  36 C :   -0.637388
  37 S :    0.673877
  38 S :    0.623194
  39 C :   -0.632194
  40 S :    0.634159
  41 C :   -0.632768
  42 S :    0.625444
  43 C :   -0.638535
  44 C :   -0.638269
  45 S :    0.627587
  46 S :    0.599836
  47 C :   -0.412842
  48 C :   -0.412779
  49 S :    0.600841
  50 H :    0.141001
  51 H :    0.140868
  52 H :    0.144194
  53 H :    0.140919

  Mayer bond orders larger than 0.1
B(  0-C ,  1-C ) :   1.5397 B(  0-C ,  5-C ) :   1.3600 B(  0-C , 19-H ) :   0.9824
B(  1-C ,  2-C ) :   1.2838 B(  1-C , 16-H ) :   0.9160 B(  2-C ,  3-C ) :   1.3713
B(  2-C ,  6-C ) :   1.0626 B(  3-C ,  4-C ) :   1.3079 B(  3-C ,  8-N ) :   1.1212
B(  4-C ,  5-C ) :   1.4857 B(  4-C , 17-H ) :   0.9754 B(  5-C , 18-H ) :   0.9791
B(  6-C ,  7-C ) :   1.3310 B(  6-C , 12-C ) :   1.2251 B(  7-C ,  8-N ) :   1.1509
B(  7-C ,  9-C ) :   1.2882 B(  8-N , 14-H ) :   0.9124 B(  9-C , 10-C ) :   1.4713
B(  9-C , 52-H ) :   0.9745 B( 10-C , 11-C ) :   1.4041 B( 10-C , 15-H ) :   0.9805
B( 11-C , 12-C ) :   1.4220 B( 11-C , 13-H ) :   0.9611 B( 12-C , 27-C ) :   0.8232
B( 20-N , 21-C ) :   1.2635 B( 20-N , 24-C ) :   1.6435 B( 21-C , 22-C ) :   1.6526
B( 21-C , 25-C ) :   0.9787 B( 22-C , 23-S ) :   1.2747 B( 22-C , 30-H ) :   0.9278
B( 23-S , 24-C ) :   1.2507 B( 24-C , 32-C ) :   0.9540 B( 25-C , 26-S ) :   1.3036
B( 25-C , 29-N ) :   1.6284 B( 26-S , 27-C ) :   1.2474 B( 26-S , 28-C ) :   0.1086
B( 27-C , 28-C ) :   1.5893 B( 28-C , 29-N ) :   1.3079 B( 28-C , 31-H ) :   0.9720
B( 32-C , 33-C ) :   1.7474 B( 32-C , 37-S ) :   1.1454 B( 33-C , 34-S ) :   1.1071
B( 33-C , 51-H ) :   0.9354 B( 34-S , 35-C ) :   1.0641 B( 35-C , 36-C ) :   1.7237
B( 35-C , 38-S ) :   1.1133 B( 36-C , 37-S ) :   1.0933 B( 36-C , 40-S ) :   1.1299
B( 38-S , 39-C ) :   1.1255 B( 39-C , 40-S ) :   1.1193 B( 39-C , 41-C ) :   1.5585
B( 41-C , 42-S ) :   1.1218 B( 41-C , 45-S ) :   1.1269 B( 42-S , 43-C ) :   1.1193
B( 43-C , 44-C ) :   1.7371 B( 43-C , 46-S ) :   1.0734 B( 44-C , 45-S ) :   1.1177
B( 44-C , 49-S ) :   1.0756 B( 46-S , 47-C ) :   1.0784 B( 47-C , 48-C ) :   1.8922
B( 47-C , 53-H ) :   0.9283 B( 48-C , 49-S ) :   1.0786 B( 48-C , 50-H ) :   0.9276

Dispersion correction           -0.026798683
FINAL SINGLE POINT ENERGY     -5221.065524541306

DIPOLE MOMENT
-------------
                                X             Y             Z
Electronic contribution:     55.42841       9.75238       7.90999
Nuclear contribution   :    -56.68477     -10.97859      -7.50073
                        -----------------------------------------
Total Dipole Moment    :     -1.25636      -1.22620       0.40926
                        -----------------------------------------
Magnitude (a.u.)       :      1.80264
Magnitude (Debye)      :      4.58195

                             ****ORCA TERMINATED NORMALLY****
TOTAL RUN TIME: 0 days 0 hours 25 minutes 45 seconds 236 msec
