                         Program Version 4.0.0 -  RELEASE  -
|  1> #
|  2> !wB97X-D3 def2-TZVP def2/J RIJCOSX Grid5 FinalGrid6 TightSCF
|  3> %pal
|  4>  nprocs 24
|  5> end
|  6> %tddft
|  7>   Mode sTDDFT
|  8>   nroots 2
|  9>   Ethresh 10.0
| 10>   maxcore 5000
| 11>   triplets true
| 12> end
| 13> * xyz 0 1
| 14> C -2.65109512 2.73787022 -0.49963197
| 15> C -2.49816940 1.35542098 -0.42552759
| 16> C -3.61280520 0.55271322 -0.11459228
| 17> C -4.86833748 1.19708808 0.07720356
| 18> C -5.02553832 2.58973344 0.00807298
| 19> C -3.89576506 3.35197745 -0.27748763
| 20> C -3.85539032 -0.87698478 0.02479749
| 21> C -5.25519083 -1.01468406 0.26020946
| 22> N -5.83753818 0.23819828 0.30868151
| 23> C -5.89639178 -2.25561655 0.39291009
| 24> C -5.10657518 -3.39745598 0.27551215
| 25> C -3.72663892 -3.29774784 0.06313411
| 26> C -3.06297957 -2.05846405 -0.04560234
| 27> H -3.13843699 -4.20973543 0.00725971
| 28> H -6.82325986 0.42022668 0.45185197
| 29> H -5.56182640 -4.37993557 0.36280019
| 30> H -1.52475216 0.91731185 -0.61835561
| 31> H -5.99583732 3.05349164 0.16436243
| 32> H -3.97833669 4.43366885 -0.33996709
| 33> H -1.78985602 3.35629004 -0.73748806
| 34> O 2.70144827 -0.49604042 0.08763370
| 35> C 1.38810046 -0.23797774 0.26376611
| 36> C 1.22838953 1.06722923 0.71888576
| 37> C 2.52880548 1.61236356 0.81781098
| 38> C 3.40878680 0.61271635 0.41837096
| 39> C 0.43062115 -1.27312276 -0.03332523
| 40> C 0.56255938 -2.57228019 -0.50800813
| 41> C -0.75076163 -3.09175942 -0.60251549
| 42> C -1.60981682 -2.07814515 -0.19300443
| 43> O -0.88016445 -0.99883585 0.15180518
| 44> H -1.03054811 -4.07633425 -0.94852645
| 45> H 1.48623011 -3.07609127 -0.75282996
| 46> H 2.79413056 2.60892362 1.13995892
| 47> H 0.29218330 1.55576372 0.94826032
| 48> N 7.59126753 2.84820157 0.89667574
| 49> C 7.09896383 1.65230143 0.52343671
| 50> C 5.67351529 1.70842706 0.63848967
| 51> N 5.34306861 2.93527060 1.07759886
| 52> O 6.51386248 3.59902027 1.22435106
| 53> C 4.85238286 0.57399568 0.30813963
| 54> C 5.53439360 -0.56185063 -0.12392745
| 55> C 6.95218454 -0.60817991 -0.23510221
| 56> C 7.75477042 0.46842094 0.07686311
| 57> H 7.40686855 -1.53337220 -0.58021012
| 58> H 4.96357294 -1.44835003 -0.38683049
| 59> H -6.96604534 -2.32073414 0.57013802
| 60> H 8.83575149 0.41707342 -0.01334787
| 61> *
| 62> $new_job
| 63> #
| 64> !wB97X-D3 def2-TZVP def2/J RIJCOSX Grid5 FinalGrid6 TightSCF
| 65> %pal
| 66>  nprocs 24
| 67> end
| 68> %elprop
| 69>    dipole     true
| 70>    quadrupole true
| 71> end
| 72> %tddft
| 73>   Mode sTDDFT
| 74>   nroots 2
| 75>   Ethresh 10.0
| 76>   maxcore 5000
| 77> end
| 78> * xyz 0 1
| 79> C -2.65109512 2.73787022 -0.49963197
| 80> C -2.49816940 1.35542098 -0.42552759
| 81> C -3.61280520 0.55271322 -0.11459228
| 82> C -4.86833748 1.19708808 0.07720356
| 83> C -5.02553832 2.58973344 0.00807298
| 84> C -3.89576506 3.35197745 -0.27748763
| 85> C -3.85539032 -0.87698478 0.02479749
| 86> C -5.25519083 -1.01468406 0.26020946
| 87> N -5.83753818 0.23819828 0.30868151
| 88> C -5.89639178 -2.25561655 0.39291009
| 89> C -5.10657518 -3.39745598 0.27551215
| 90> C -3.72663892 -3.29774784 0.06313411
| 91> C -3.06297957 -2.05846405 -0.04560234
| 92> H -3.13843699 -4.20973543 0.00725971
| 93> H -6.82325986 0.42022668 0.45185197
| 94> H -5.56182640 -4.37993557 0.36280019
| 95> H -1.52475216 0.91731185 -0.61835561
| 96> H -5.99583732 3.05349164 0.16436243
| 97> H -3.97833669 4.43366885 -0.33996709
| 98> H -1.78985602 3.35629004 -0.73748806
| 99> O 2.70144827 -0.49604042 0.08763370
|100> C 1.38810046 -0.23797774 0.26376611
|101> C 1.22838953 1.06722923 0.71888576
|102> C 2.52880548 1.61236356 0.81781098
|103> C 3.40878680 0.61271635 0.41837096
|104> C 0.43062115 -1.27312276 -0.03332523
|105> C 0.56255938 -2.57228019 -0.50800813
|106> C -0.75076163 -3.09175942 -0.60251549
|107> C -1.60981682 -2.07814515 -0.19300443
|108> O -0.88016445 -0.99883585 0.15180518
|109> H -1.03054811 -4.07633425 -0.94852645
|110> H 1.48623011 -3.07609127 -0.75282996
|111> H 2.79413056 2.60892362 1.13995892
|112> H 0.29218330 1.55576372 0.94826032
|113> N 7.59126753 2.84820157 0.89667574
|114> C 7.09896383 1.65230143 0.52343671
|115> C 5.67351529 1.70842706 0.63848967
|116> N 5.34306861 2.93527060 1.07759886
|117> O 6.51386248 3.59902027 1.22435106
|118> C 4.85238286 0.57399568 0.30813963
|119> C 5.53439360 -0.56185063 -0.12392745
|120> C 6.95218454 -0.60817991 -0.23510221
|121> C 7.75477042 0.46842094 0.07686311
|122> H 7.40686855 -1.53337220 -0.58021012
|123> H 4.96357294 -1.44835003 -0.38683049
|124> H -6.96604534 -2.32073414 0.57013802
|125> H 8.83575149 0.41707342 -0.01334787
|126> *
|127>
|128>                          ****END OF INPUT****
 Total Charge           Charge          ....    0
 Multiplicity           Mult            ....    1
 Number of Electrons    NEL             ....  216
Dispersion correction           -0.021630257
FINAL SINGLE POINT ENERGY     -1389.727594607380

CARTESIAN COORDINATES (ANGSTROEM)
---------------------------------
  C     -2.651095    2.737870   -0.499632
  C     -2.498169    1.355421   -0.425528
  C     -3.612805    0.552713   -0.114592
  C     -4.868337    1.197088    0.077204
  C     -5.025538    2.589733    0.008073
  C     -3.895765    3.351977   -0.277488
  C     -3.855390   -0.876985    0.024797
  C     -5.255191   -1.014684    0.260209
  N     -5.837538    0.238198    0.308682
  C     -5.896392   -2.255617    0.392910
  C     -5.106575   -3.397456    0.275512
  C     -3.726639   -3.297748    0.063134
  C     -3.062980   -2.058464   -0.045602
  H     -3.138437   -4.209735    0.007260
  H     -6.823260    0.420227    0.451852
  H     -5.561826   -4.379936    0.362800
  H     -1.524752    0.917312   -0.618356
  H     -5.995837    3.053492    0.164362
  H     -3.978337    4.433669   -0.339967
  H     -1.789856    3.356290   -0.737488
  O      2.701448   -0.496040    0.087634
  C      1.388100   -0.237978    0.263766
  C      1.228390    1.067229    0.718886
  C      2.528805    1.612364    0.817811
  C      3.408787    0.612716    0.418371
  C      0.430621   -1.273123   -0.033325
  C      0.562559   -2.572280   -0.508008
  C     -0.750762   -3.091759   -0.602515
  C     -1.609817   -2.078145   -0.193004
  O     -0.880164   -0.998836    0.151805
  H     -1.030548   -4.076334   -0.948526
  H      1.486230   -3.076091   -0.752830
  H      2.794131    2.608924    1.139959
  H      0.292183    1.555764    0.948260
  N      7.591268    2.848202    0.896676
  C      7.098964    1.652301    0.523437
  C      5.673515    1.708427    0.638490
  N      5.343069    2.935271    1.077599
  O      6.513862    3.599020    1.224351
  C      4.852383    0.573996    0.308140
  C      5.534394   -0.561851   -0.123927
  C      6.952185   -0.608180   -0.235102
  C      7.754770    0.468421    0.076863
  H      7.406869   -1.533372   -0.580210
  H      4.963573   -1.448350   -0.386830
  H     -6.966045   -2.320734    0.570138
  H      8.835751    0.417073   -0.013348

 Multiplicity           Mult            ....    1
 Number of Electrons    NEL             ....  216
 Basis Dimension        Dim             .... 1082

ORBITAL ENERGIES
----------------

  NO   OCC          E(Eh)            E(eV)
   0   2.0000     -19.377260      -527.2820
   1   2.0000     -19.319486      -525.7100
   2   2.0000     -19.317166      -525.6468
   3   2.0000     -14.504084      -394.6762
   4   2.0000     -14.502675      -394.6379
   5   2.0000     -14.468891      -393.7186
   6   2.0000     -10.360354      -281.9196
   7   2.0000     -10.354880      -281.7706
   8   2.0000     -10.353240      -281.7260
   9   2.0000     -10.351655      -281.6829
  10   2.0000     -10.345085      -281.5041
  11   2.0000     -10.342221      -281.4261
  12   2.0000     -10.335835      -281.2524
  13   2.0000     -10.330765      -281.1144
  14   2.0000     -10.326615      -281.0015
  15   2.0000     -10.315033      -280.6863
  16   2.0000     -10.313749      -280.6514
  17   2.0000     -10.313449      -280.6432
  18   2.0000     -10.312102      -280.6066
  19   2.0000     -10.299348      -280.2595
  20   2.0000     -10.293543      -280.1016
  21   2.0000     -10.292924      -280.0847
  22   2.0000     -10.291512      -280.0463
  23   2.0000     -10.291429      -280.0440
  24   2.0000     -10.290827      -280.0276
  25   2.0000     -10.290784      -280.0265
  26   2.0000     -10.289562      -279.9932
  27   2.0000     -10.286613      -279.9130
  28   2.0000     -10.285625      -279.8861
  29   2.0000     -10.285300      -279.8772
  30   2.0000     -10.283008      -279.8149
  31   2.0000     -10.275094      -279.5995
  32   2.0000      -1.323180       -36.0056
  33   2.0000      -1.257668       -34.2229
  34   2.0000      -1.251500       -34.0550
  35   2.0000      -1.106348       -30.1053
  36   2.0000      -1.033157       -28.1136
  37   2.0000      -1.026590       -27.9349
  38   2.0000      -0.979043       -26.6411
  39   2.0000      -0.965760       -26.2797
  40   2.0000      -0.951882       -25.9020
  41   2.0000      -0.935152       -25.4468
  42   2.0000      -0.933934       -25.4136
  43   2.0000      -0.926379       -25.2080
  44   2.0000      -0.908706       -24.7271
  45   2.0000      -0.897674       -24.4269
  46   2.0000      -0.874315       -23.7913
  47   2.0000      -0.854050       -23.2399
  48   2.0000      -0.841103       -22.8876
  49   2.0000      -0.826638       -22.4940
  50   2.0000      -0.798994       -21.7417
  51   2.0000      -0.768187       -20.9034
  52   2.0000      -0.766360       -20.8537
  53   2.0000      -0.745111       -20.2755
  54   2.0000      -0.737834       -20.0775
  55   2.0000      -0.722140       -19.6504
  56   2.0000      -0.716686       -19.5020
  57   2.0000      -0.706520       -19.2254
  58   2.0000      -0.699867       -19.0443
  59   2.0000      -0.678773       -18.4704
  60   2.0000      -0.671141       -18.2627
  61   2.0000      -0.668874       -18.2010
  62   2.0000      -0.652606       -17.7583
  63   2.0000      -0.641482       -17.4556
  64   2.0000      -0.625331       -17.0161
  65   2.0000      -0.619325       -16.8527
  66   2.0000      -0.619160       -16.8482
  67   2.0000      -0.614108       -16.7107
  68   2.0000      -0.601262       -16.3612
  69   2.0000      -0.599023       -16.3003
  70   2.0000      -0.584266       -15.8987
  71   2.0000      -0.577509       -15.7148
  72   2.0000      -0.565122       -15.3778
  73   2.0000      -0.560898       -15.2628
  74   2.0000      -0.556450       -15.1418
  75   2.0000      -0.546357       -14.8671
  76   2.0000      -0.541125       -14.7248
  77   2.0000      -0.536902       -14.6099
  78   2.0000      -0.533759       -14.5243
  79   2.0000      -0.528370       -14.3777
  80   2.0000      -0.522547       -14.2192
  81   2.0000      -0.513562       -13.9747
  82   2.0000      -0.512495       -13.9457
  83   2.0000      -0.504690       -13.7333
  84   2.0000      -0.499422       -13.5900
  85   2.0000      -0.497810       -13.5461
  86   2.0000      -0.489235       -13.3128
  87   2.0000      -0.482854       -13.1391
  88   2.0000      -0.474350       -12.9077
  89   2.0000      -0.469514       -12.7761
  90   2.0000      -0.466216       -12.6864
  91   2.0000      -0.462781       -12.5929
  92   2.0000      -0.443851       -12.0778
  93   2.0000      -0.442951       -12.0533
  94   2.0000      -0.439197       -11.9512
  95   2.0000      -0.436472       -11.8770
  96   2.0000      -0.432819       -11.7776
  97   2.0000      -0.419385       -11.4120
  98   2.0000      -0.397602       -10.8193
  99   2.0000      -0.390263       -10.6196
 100   2.0000      -0.387355       -10.5405
 101   2.0000      -0.384903       -10.4737
 102   2.0000      -0.375750       -10.2247
 103   2.0000      -0.356135        -9.6909
 104   2.0000      -0.327852        -8.9213
 105   2.0000      -0.302183        -8.2228
 106   2.0000      -0.294009        -8.0004
 107   2.0000      -0.260941        -7.1006
 108   0.0000      -0.037023        -1.0074
 109   0.0000       0.003054         0.0831
 110   0.0000       0.036061         0.9813
 111   0.0000       0.054430         1.4811
 112   0.0000       0.071236         1.9384

MULLIKEN ATOMIC CHARGES
-----------------------
   0 C :   -0.173410
   1 C :   -0.179188
   2 C :   -0.017168
   3 C :    0.168935
   4 C :   -0.235198
   5 C :   -0.079316
   6 C :   -0.050834
   7 C :    0.188238
   8 N :   -0.300949
   9 C :   -0.236698
  10 C :   -0.083626
  11 C :   -0.271686
  12 C :    0.095942
  13 H :    0.112378
  14 H :    0.235790
  15 H :    0.122171
  16 H :    0.165598
  17 H :    0.114337
  18 H :    0.122486
  19 H :    0.119101
  20 O :   -0.282551
  21 C :    0.227950
  22 C :   -0.270088
  23 C :   -0.179620
  24 C :    0.279610
  25 C :    0.247362
  26 C :   -0.258445
  27 C :   -0.187361
  28 C :    0.295776
  29 O :   -0.285582
  30 H :    0.147777
  31 H :    0.139943
  32 H :    0.174144
  33 H :    0.180854
  34 N :   -0.078414
  35 C :    0.031152
  36 C :    0.096213
  37 N :   -0.103485
  38 O :   -0.009298
  39 C :   -0.044999
  40 C :   -0.222075
  41 C :   -0.078368
  42 C :   -0.188868
  43 H :    0.137434
  44 H :    0.153720
  45 H :    0.115603
  46 H :    0.144712
Sum of atomic charges:   -0.0000000

LOEWDIN ATOMIC CHARGES
----------------------
   0 C :   -0.162758
   1 C :   -0.106086
   2 C :   -0.078734
   3 C :   -0.145319
   4 C :   -0.133786
   5 C :   -0.141397
   6 C :   -0.036555
   7 C :   -0.144670
   8 N :    0.201383
   9 C :   -0.129476
  10 C :   -0.143168
  11 C :   -0.111512
  12 C :   -0.079847
  13 H :    0.148306
  14 H :    0.193352
  15 H :    0.146486
  16 H :    0.149202
  17 H :    0.143119
  18 H :    0.144687
  19 H :    0.143583
  20 O :    0.396229
  21 C :   -0.207956
  22 C :   -0.132944
  23 C :   -0.118455
  24 C :   -0.200768
  25 C :   -0.218450
  26 C :   -0.130619
  27 C :   -0.137967
  28 C :   -0.188489
  29 O :    0.407388
  30 H :    0.144025
  31 H :    0.145444
  32 H :    0.151855
  33 H :    0.149098
  34 N :    0.039725
  35 C :   -0.230897
  36 C :   -0.183791
  37 N :    0.036952
  38 O :    0.218853
  39 C :   -0.085407
  40 C :   -0.086013
  41 C :   -0.124321
  42 C :   -0.104538
  43 H :    0.151667
  44 H :    0.155325
  45 H :    0.143818
  46 H :    0.153427

  Mayer bond orders larger than 0.1
B(  0-C ,  1-C ) :   1.5250 B(  0-C ,  5-C ) :   1.3554 B(  0-C , 19-H ) :   0.9875
B(  1-C ,  2-C ) :   1.2954 B(  1-C , 16-H ) :   0.9206 B(  2-C ,  3-C ) :   1.3530
B(  2-C ,  6-C ) :   1.0720 B(  3-C ,  4-C ) :   1.3037 B(  3-C ,  8-N ) :   1.1243
B(  4-C ,  5-C ) :   1.4835 B(  4-C , 17-H ) :   0.9765 B(  5-C , 18-H ) :   0.9814
B(  6-C ,  7-C ) :   1.3339 B(  6-C , 12-C ) :   1.2578 B(  7-C ,  8-N ) :   1.1460
B(  7-C ,  9-C ) :   1.2887 B(  8-N , 14-H ) :   0.9128 B(  9-C , 10-C ) :   1.4578
B(  9-C , 45-H ) :   0.9739 B( 10-C , 11-C ) :   1.4151 B( 10-C , 15-H ) :   0.9838
B( 11-C , 12-C ) :   1.4352 B( 11-C , 13-H ) :   0.9676 B( 12-C , 28-C ) :   0.9758
B( 20-O , 21-C ) :   1.1087 B( 20-O , 24-C ) :   1.0566 B( 21-C , 22-C ) :   1.5219
B( 21-C , 25-C ) :   0.9934 B( 22-C , 23-C ) :   1.3229 B( 22-C , 33-H ) :   0.9359
B( 23-C , 24-C ) :   1.5595 B( 23-C , 32-H ) :   0.9554 B( 24-C , 39-C ) :   1.0043
B( 25-C , 26-C ) :   1.5210 B( 25-C , 29-O ) :   1.0655 B( 26-C , 27-C ) :   1.3126
B( 26-C , 31-H ) :   0.9818 B( 27-C , 28-C ) :   1.5377 B( 27-C , 30-H ) :   0.9605
B( 28-C , 29-O ) :   1.0691 B( 34-N , 35-C ) :   1.6145 B( 34-N , 37-N ) :   0.1958
B( 34-N , 38-O ) :   1.0632 B( 35-C , 36-C ) :   1.1733 B( 35-C , 42-C ) :   1.1398
B( 36-C , 37-N ) :   1.5494 B( 36-C , 39-C ) :   1.0919 B( 37-N , 38-O ) :   1.0551
B( 39-C , 40-C ) :   1.6073 B( 40-C , 41-C ) :   1.2207 B( 40-C , 44-H ) :   0.9434
B( 41-C , 42-C ) :   1.6138 B( 41-C , 43-H ) :   0.9788 B( 42-C , 46-H ) :   0.9765

Dispersion correction           -0.021630257
FINAL SINGLE POINT ENERGY     -1389.727594567591

DIPOLE MOMENT
-------------
                                X             Y             Z
Electronic contribution:     14.55607       4.84558       2.85878
Nuclear contribution   :    -15.90020      -6.23907      -3.23968
                        -----------------------------------------
Total Dipole Moment    :     -1.34413      -1.39349      -0.38090
                        -----------------------------------------
Magnitude (a.u.)       :      1.97322
Magnitude (Debye)      :      5.01552

                             ****ORCA TERMINATED NORMALLY****
TOTAL RUN TIME: 0 days 0 hours 8 minutes 43 seconds 46 msec
