                         Program Version 4.0.0 -  RELEASE  -
|  1> #
|  2> !wB97X-D3 def2-TZVP def2/J RIJCOSX Grid5 FinalGrid6 TightSCF
|  3> %pal
|  4>  nprocs 24
|  5> end
|  6> %tddft
|  7>   Mode sTDDFT
|  8>   nroots 2
|  9>   Ethresh 10.0
| 10>   maxcore 5000
| 11>   triplets true
| 12> end
| 13> * xyz 0 1
| 14> C -7.36318180 0.84169727 2.30825520
| 15> C -6.49361775 0.50373549 1.27451284
| 16> C -7.00652666 0.34027570 -0.02650808
| 17> C -8.40053407 0.53875259 -0.23381413
| 18> C -9.28013984 0.87250984 0.80735692
| 19> C -8.73940645 1.01984410 2.08215140
| 20> C -6.43450278 0.02763013 -1.32723387
| 21> C -7.51819412 0.07359853 -2.25415428
| 22> N -8.68733642 0.36394420 -1.57638920
| 23> C -7.35835050 -0.12892506 -3.63282143
| 24> C -6.06738763 -0.36959159 -4.09859612
| 25> C -4.98266067 -0.41898967 -3.21454399
| 26> C -5.12969966 -0.24381418 -1.82472058
| 27> H -3.99195811 -0.62479256 -3.61346199
| 28> H -9.60050460 0.46653254 -2.00172316
| 29> H -5.89646197 -0.52478467 -5.16002344
| 30> H -5.43549621 0.36554154 1.47632999
| 31> H -10.34158559 1.01495501 0.62275925
| 32> H -9.38948055 1.27810750 2.91396001
| 33> H -6.97226447 0.96766532 3.31418600
| 34> S 0.94682906 -0.05954168 -0.79983769
| 35> C 2.10323920 -0.34929796 0.51782259
| 36> N 1.51879849 -0.72023307 1.65607065
| 37> N 0.16105934 -0.79963780 1.57129139
| 38> C -0.31860802 -0.49285065 0.37293008
| 39> C -1.72292358 -0.49910034 0.02462447
| 40> N -2.70129532 -0.82189451 0.86025198
| 41> N -3.94294728 -0.74967661 0.29340010
| 42> C -3.94229055 -0.36804119 -0.97399496
| 43> S -2.29629604 -0.06865033 -1.59603317
| 44> C 9.40324629 1.01408247 -1.09260666
| 45> C 8.24493840 0.59017750 -0.37120981
| 46> C 7.09009848 0.53160726 -1.15090759
| 47> S 7.44665372 0.99679011 -2.80980775
| 48> C 9.12836241 1.26201524 -2.41620724
| 49> C 5.84190484 0.21710747 -0.52674484
| 50> C 5.82657222 -0.15648415 0.81513728
| 51> C 7.12536316 -0.37370108 1.58998350
| 52> O 8.26765712 0.33034327 0.95588301
| 53> C 4.51630837 -0.39282867 1.30432586
| 54> C 3.52347989 -0.19301940 0.35173627
| 55> S 4.22564632 0.29883138 -1.19248621
| 56> C 7.49049029 -1.87720981 1.60394495
| 57> H 10.38675898 1.12419079 -0.65096232
| 58> H 4.29240921 -0.70163950 2.31942099
| 59> H 6.70934112 -2.45383269 2.09336927
| 60> H 7.60345088 -2.24874074 0.58823524
| 61> H 8.42536586 -2.04059958 2.13471886
| 62> C 7.04141624 0.18301783 3.02004193
| 63> H 6.79385613 1.24134119 3.00635429
| 64> H 6.27725367 -0.33913749 3.59032857
| 65> H 7.99295370 0.06106333 3.53142223
| 66> H -8.20676045 -0.08864215 -4.31011986
| 67> H 9.83695769 1.57969954 -3.17009676
| 68> *
| 69> $new_job
| 70> #
| 71> !wB97X-D3 def2-TZVP def2/J RIJCOSX Grid5 FinalGrid6 TightSCF
| 72> %pal
| 73>  nprocs 24
| 74> end
| 75> %elprop
| 76>    dipole     true
| 77>    quadrupole true
| 78> end
| 79> %tddft
| 80>   Mode sTDDFT
| 81>   nroots 2
| 82>   Ethresh 10.0
| 83>   maxcore 5000
| 84> end
| 85> * xyz 0 1
| 86> C -7.36318180 0.84169727 2.30825520
| 87> C -6.49361775 0.50373549 1.27451284
| 88> C -7.00652666 0.34027570 -0.02650808
| 89> C -8.40053407 0.53875259 -0.23381413
| 90> C -9.28013984 0.87250984 0.80735692
| 91> C -8.73940645 1.01984410 2.08215140
| 92> C -6.43450278 0.02763013 -1.32723387
| 93> C -7.51819412 0.07359853 -2.25415428
| 94> N -8.68733642 0.36394420 -1.57638920
| 95> C -7.35835050 -0.12892506 -3.63282143
| 96> C -6.06738763 -0.36959159 -4.09859612
| 97> C -4.98266067 -0.41898967 -3.21454399
| 98> C -5.12969966 -0.24381418 -1.82472058
| 99> H -3.99195811 -0.62479256 -3.61346199
|100> H -9.60050460 0.46653254 -2.00172316
|101> H -5.89646197 -0.52478467 -5.16002344
|102> H -5.43549621 0.36554154 1.47632999
|103> H -10.34158559 1.01495501 0.62275925
|104> H -9.38948055 1.27810750 2.91396001
|105> H -6.97226447 0.96766532 3.31418600
|106> S 0.94682906 -0.05954168 -0.79983769
|107> C 2.10323920 -0.34929796 0.51782259
|108> N 1.51879849 -0.72023307 1.65607065
|109> N 0.16105934 -0.79963780 1.57129139
|110> C -0.31860802 -0.49285065 0.37293008
|111> C -1.72292358 -0.49910034 0.02462447
|112> N -2.70129532 -0.82189451 0.86025198
|113> N -3.94294728 -0.74967661 0.29340010
|114> C -3.94229055 -0.36804119 -0.97399496
|115> S -2.29629604 -0.06865033 -1.59603317
|116> C 9.40324629 1.01408247 -1.09260666
|117> C 8.24493840 0.59017750 -0.37120981
|118> C 7.09009848 0.53160726 -1.15090759
|119> S 7.44665372 0.99679011 -2.80980775
|120> C 9.12836241 1.26201524 -2.41620724
|121> C 5.84190484 0.21710747 -0.52674484
|122> C 5.82657222 -0.15648415 0.81513728
|123> C 7.12536316 -0.37370108 1.58998350
|124> O 8.26765712 0.33034327 0.95588301
|125> C 4.51630837 -0.39282867 1.30432586
|126> C 3.52347989 -0.19301940 0.35173627
|127> S 4.22564632 0.29883138 -1.19248621
|128> C 7.49049029 -1.87720981 1.60394495
|129> H 10.38675898 1.12419079 -0.65096232
|130> H 4.29240921 -0.70163950 2.31942099
|131> H 6.70934112 -2.45383269 2.09336927
|132> H 7.60345088 -2.24874074 0.58823524
|133> H 8.42536586 -2.04059958 2.13471886
|134> C 7.04141624 0.18301783 3.02004193
|135> H 6.79385613 1.24134119 3.00635429
|136> H 6.27725367 -0.33913749 3.59032857
|137> H 7.99295370 0.06106333 3.53142223
|138> H -8.20676045 -0.08864215 -4.31011986
|139> H 9.83695769 1.57969954 -3.17009676
|140> *
|141>
|142>                          ****END OF INPUT****
 Total Charge           Charge          ....    0
 Multiplicity           Mult            ....    1
 Number of Electrons    NEL             ....  286
Dispersion correction           -0.026419561
FINAL SINGLE POINT ENERGY     -2980.947325150084

CARTESIAN COORDINATES (ANGSTROEM)
---------------------------------
  C     -7.363182    0.841697    2.308255
  C     -6.493618    0.503735    1.274513
  C     -7.006527    0.340276   -0.026508
  C     -8.400534    0.538753   -0.233814
  C     -9.280140    0.872510    0.807357
  C     -8.739406    1.019844    2.082151
  C     -6.434503    0.027630   -1.327234
  C     -7.518194    0.073599   -2.254154
  N     -8.687336    0.363944   -1.576389
  C     -7.358350   -0.128925   -3.632821
  C     -6.067388   -0.369592   -4.098596
  C     -4.982661   -0.418990   -3.214544
  C     -5.129700   -0.243814   -1.824721
  H     -3.991958   -0.624793   -3.613462
  H     -9.600505    0.466533   -2.001723
  H     -5.896462   -0.524785   -5.160023
  H     -5.435496    0.365542    1.476330
  H    -10.341586    1.014955    0.622759
  H     -9.389481    1.278107    2.913960
  H     -6.972264    0.967665    3.314186
  S      0.946829   -0.059542   -0.799838
  C      2.103239   -0.349298    0.517823
  N      1.518798   -0.720233    1.656071
  N      0.161059   -0.799638    1.571291
  C     -0.318608   -0.492851    0.372930
  C     -1.722924   -0.499100    0.024624
  N     -2.701295   -0.821895    0.860252
  N     -3.942947   -0.749677    0.293400
  C     -3.942291   -0.368041   -0.973995
  S     -2.296296   -0.068650   -1.596033
  C      9.403246    1.014082   -1.092607
  C      8.244938    0.590177   -0.371210
  C      7.090098    0.531607   -1.150908
  S      7.446654    0.996790   -2.809808
  C      9.128362    1.262015   -2.416207
  C      5.841905    0.217107   -0.526745
  C      5.826572   -0.156484    0.815137
  C      7.125363   -0.373701    1.589983
  O      8.267657    0.330343    0.955883
  C      4.516308   -0.392829    1.304326
  C      3.523480   -0.193019    0.351736
  S      4.225646    0.298831   -1.192486
  C      7.490490   -1.877210    1.603945
  H     10.386759    1.124191   -0.650962
  H      4.292409   -0.701639    2.319421
  H      6.709341   -2.453833    2.093369
  H      7.603451   -2.248741    0.588235
  H      8.425366   -2.040600    2.134719
  C      7.041416    0.183018    3.020042
  H      6.793856    1.241341    3.006354
  H      6.277254   -0.339137    3.590329
  H      7.992954    0.061063    3.531422
  H     -8.206760   -0.088642   -4.310120
  H      9.836958    1.579700   -3.170097

 Multiplicity           Mult            ....    1
 Number of Electrons    NEL             ....  286
 Basis Dimension        Dim             .... 1273

ORBITAL ENERGIES
----------------

  NO   OCC          E(Eh)            E(eV)
   0   2.0000     -89.011391     -2422.1231
   1   2.0000     -89.008701     -2422.0499
   2   2.0000     -89.003650     -2421.9124
   3   2.0000     -88.993962     -2421.6488
   4   2.0000     -19.278445      -524.5932
   5   2.0000     -14.471428      -393.7876
   6   2.0000     -14.470741      -393.7689
   7   2.0000     -14.468424      -393.7058
   8   2.0000     -14.465739      -393.6328
   9   2.0000     -14.464432      -393.5972
  10   2.0000     -10.382688      -282.5273
  11   2.0000     -10.378695      -282.4186
  12   2.0000     -10.378618      -282.4165
  13   2.0000     -10.378146      -282.4037
  14   2.0000     -10.376013      -282.3457
  15   2.0000     -10.363172      -281.9963
  16   2.0000     -10.349880      -281.6346
  17   2.0000     -10.343024      -281.4480
  18   2.0000     -10.335216      -281.2355
  19   2.0000     -10.331053      -281.1223
  20   2.0000     -10.327444      -281.0240
  21   2.0000     -10.325725      -280.9773
  22   2.0000     -10.321682      -280.8672
  23   2.0000     -10.313819      -280.6533
  24   2.0000     -10.311506      -280.5903
  25   2.0000     -10.305639      -280.4307
  26   2.0000     -10.301577      -280.3202
  27   2.0000     -10.300040      -280.2783
  28   2.0000     -10.296918      -280.1934
  29   2.0000     -10.295863      -280.1647
  30   2.0000     -10.288612      -279.9674
  31   2.0000     -10.283825      -279.8371
  32   2.0000     -10.282810      -279.8095
  33   2.0000     -10.282053      -279.7889
  34   2.0000     -10.279755      -279.7264
  35   2.0000     -10.276529      -279.6386
  36   2.0000     -10.269779      -279.4549
  37   2.0000      -8.108147      -220.6339
  38   2.0000      -8.105470      -220.5611
  39   2.0000      -8.099867      -220.4086
  40   2.0000      -8.089851      -220.1360
  41   2.0000      -6.061125      -164.9316
  42   2.0000      -6.058419      -164.8580
  43   2.0000      -6.057456      -164.8317
  44   2.0000      -6.055168      -164.7695
  45   2.0000      -6.054721      -164.7573
  46   2.0000      -6.053256      -164.7175
  47   2.0000      -6.052594      -164.6995
  48   2.0000      -6.049207      -164.6073
  49   2.0000      -6.046657      -164.5379
  50   2.0000      -6.043346      -164.4478
  51   2.0000      -6.039206      -164.3352
  52   2.0000      -6.036616      -164.2647
  53   2.0000      -1.193790       -32.4847
  54   2.0000      -1.155644       -31.4467
  55   2.0000      -1.146783       -31.2055
  56   2.0000      -1.107998       -30.1502
  57   2.0000      -1.029752       -28.0210
  58   2.0000      -1.006824       -27.3971
  59   2.0000      -0.993455       -27.0333
  60   2.0000      -0.977913       -26.6104
  61   2.0000      -0.963421       -26.2160
  62   2.0000      -0.955600       -26.0032
  63   2.0000      -0.940449       -25.5909
  64   2.0000      -0.932228       -25.3672
  65   2.0000      -0.914982       -24.8979
  66   2.0000      -0.902526       -24.5590
  67   2.0000      -0.897314       -24.4171
  68   2.0000      -0.875332       -23.8190
  69   2.0000      -0.870112       -23.6770
  70   2.0000      -0.849606       -23.1190
  71   2.0000      -0.846523       -23.0351
  72   2.0000      -0.841205       -22.8904
  73   2.0000      -0.826527       -22.4909
  74   2.0000      -0.823039       -22.3960
  75   2.0000      -0.785999       -21.3881
  76   2.0000      -0.768307       -20.9067
  77   2.0000      -0.763187       -20.7674
  78   2.0000      -0.730573       -19.8799
  79   2.0000      -0.727608       -19.7992
  80   2.0000      -0.722892       -19.6709
  81   2.0000      -0.713643       -19.4192
  82   2.0000      -0.710891       -19.3443
  83   2.0000      -0.694188       -18.8898
  84   2.0000      -0.685938       -18.6653
  85   2.0000      -0.672156       -18.2903
  86   2.0000      -0.664072       -18.0703
  87   2.0000      -0.654871       -17.8200
  88   2.0000      -0.626767       -17.0552
  89   2.0000      -0.616857       -16.7855
  90   2.0000      -0.614586       -16.7237
  91   2.0000      -0.599269       -16.3069
  92   2.0000      -0.595034       -16.1917
  93   2.0000      -0.580795       -15.8042
  94   2.0000      -0.577646       -15.7186
  95   2.0000      -0.576725       -15.6935
  96   2.0000      -0.569116       -15.4864
  97   2.0000      -0.564014       -15.3476
  98   2.0000      -0.562283       -15.3005
  99   2.0000      -0.553597       -15.0641
 100   2.0000      -0.551602       -15.0098
 101   2.0000      -0.544539       -14.8177
 102   2.0000      -0.542781       -14.7698
 103   2.0000      -0.538861       -14.6631
 104   2.0000      -0.533660       -14.5216
 105   2.0000      -0.528866       -14.3912
 106   2.0000      -0.527954       -14.3664
 107   2.0000      -0.524344       -14.2681
 108   2.0000      -0.522281       -14.2120
 109   2.0000      -0.517623       -14.0852
 110   2.0000      -0.515946       -14.0396
 111   2.0000      -0.512498       -13.9458
 112   2.0000      -0.506849       -13.7921
 113   2.0000      -0.492758       -13.4086
 114   2.0000      -0.490028       -13.3343
 115   2.0000      -0.478230       -13.0133
 116   2.0000      -0.473161       -12.8754
 117   2.0000      -0.472358       -12.8535
 118   2.0000      -0.470264       -12.7965
 119   2.0000      -0.468609       -12.7515
 120   2.0000      -0.463128       -12.6024
 121   2.0000      -0.457669       -12.4538
 122   2.0000      -0.447459       -12.1760
 123   2.0000      -0.445648       -12.1267
 124   2.0000      -0.437206       -11.8970
 125   2.0000      -0.434434       -11.8216
 126   2.0000      -0.426095       -11.5946
 127   2.0000      -0.421128       -11.4595
 128   2.0000      -0.412576       -11.2268
 129   2.0000      -0.406500       -11.0614
 130   2.0000      -0.404669       -11.0116
 131   2.0000      -0.397996       -10.8300
 132   2.0000      -0.386841       -10.5265
 133   2.0000      -0.379000       -10.3131
 134   2.0000      -0.375488       -10.2176
 135   2.0000      -0.361714        -9.8427
 136   2.0000      -0.359107        -9.7718
 137   2.0000      -0.354149        -9.6369
 138   2.0000      -0.338507        -9.2113
 139   2.0000      -0.327837        -8.9209
 140   2.0000      -0.300922        -8.1885
 141   2.0000      -0.291259        -7.9255
 142   2.0000      -0.274308        -7.4643
 143   0.0000      -0.041453        -1.1280
 144   0.0000      -0.007697        -0.2095
 145   0.0000       0.019370         0.5271
 146   0.0000       0.023359         0.6356
 147   0.0000       0.043736         1.1901

MULLIKEN ATOMIC CHARGES
-----------------------
   0 C :   -0.180049
   1 C :   -0.129506
   2 C :   -0.030258
   3 C :    0.178829
   4 C :   -0.243378
   5 C :   -0.071627
   6 C :   -0.040727
   7 C :    0.189566
   8 N :   -0.303913
   9 C :   -0.223014
  10 C :   -0.096099
  11 C :   -0.278091
  12 C :    0.121464
  13 H :    0.124093
  14 H :    0.236727
  15 H :    0.125850
  16 H :    0.162942
  17 H :    0.112785
  18 H :    0.122284
  19 H :    0.122113
  20 S :   -0.006298
  21 C :    0.246116
  22 N :   -0.131344
  23 N :   -0.128389
  24 C :    0.105217
  25 C :    0.079892
  26 N :   -0.132670
  27 N :   -0.174696
  28 C :    0.183304
  29 S :   -0.006262
  30 C :   -0.252375
  31 C :    0.192547
  32 C :   -0.089673
  33 S :    0.056952
  34 C :   -0.167225
  35 C :    0.029811
  36 C :    0.092230
  37 C :    0.124621
  38 O :   -0.284661
  39 C :   -0.306657
  40 C :   -0.068636
  41 S :    0.049257
  42 C :   -0.361174
  43 H :    0.146802
  44 H :    0.170841
  45 H :    0.130005
  46 H :    0.138973
  47 H :    0.132890
  48 C :   -0.359555
  49 H :    0.139684
  50 H :    0.122804
  51 H :    0.139672
  52 H :    0.121725
  53 H :    0.166279
Sum of atomic charges:   -0.0000000

LOEWDIN ATOMIC CHARGES
----------------------
   0 C :   -0.156403
   1 C :   -0.090434
   2 C :   -0.078106
   3 C :   -0.144475
   4 C :   -0.136674
   5 C :   -0.138226
   6 C :   -0.027566
   7 C :   -0.143027
   8 N :    0.201601
   9 C :   -0.117839
  10 C :   -0.142219
  11 C :   -0.124853
  12 C :   -0.116582
  13 H :    0.144244
  14 H :    0.193582
  15 H :    0.147657
  16 H :    0.155090
  17 H :    0.142473
  18 H :    0.144639
  19 H :    0.144892
  20 S :    0.685627
  21 C :   -0.440031
  22 N :    0.042853
  23 N :    0.076485
  24 C :   -0.457269
  25 C :   -0.459211
  26 N :    0.070331
  27 N :    0.055042
  28 C :   -0.372743
  29 S :    0.696646
  30 C :   -0.171152
  31 C :   -0.256452
  32 C :   -0.361760
  33 S :    0.692335
  34 C :   -0.365306
  35 C :   -0.319124
  36 C :   -0.119453
  37 C :   -0.284684
  38 O :    0.282552
  39 C :   -0.094438
  40 C :   -0.367311
  41 S :    0.740481
  42 C :   -0.243960
  43 H :    0.149012
  44 H :    0.158924
  45 H :    0.128860
  46 H :    0.129492
  47 H :    0.125905
  48 C :   -0.243882
  49 H :    0.129648
  50 H :    0.128048
  51 H :    0.128693
  52 H :    0.145793
  53 H :    0.132273

  Mayer bond orders larger than 0.1
B(  0-C ,  1-C ) :   1.5389 B(  0-C ,  5-C ) :   1.3512 B(  0-C , 19-H ) :   0.9857
B(  1-C ,  2-C ) :   1.2636 B(  1-C , 16-H ) :   0.9340 B(  2-C ,  3-C ) :   1.3454
B(  2-C ,  6-C ) :   1.0977 B(  3-C ,  4-C ) :   1.3049 B(  3-C ,  8-N ) :   1.1127
B(  4-C ,  5-C ) :   1.4817 B(  4-C , 17-H ) :   0.9778 B(  5-C , 18-H ) :   0.9804
B(  6-C ,  7-C ) :   1.3191 B(  6-C , 12-C ) :   1.2513 B(  7-C ,  8-N ) :   1.1568
B(  7-C ,  9-C ) :   1.2898 B(  8-N , 14-H ) :   0.9128 B(  9-C , 10-C ) :   1.4677
B(  9-C , 52-H ) :   0.9710 B( 10-C , 11-C ) :   1.4217 B( 10-C , 15-H ) :   0.9808
B( 11-C , 12-C ) :   1.4004 B( 11-C , 13-H ) :   0.9624 B( 12-C , 28-C ) :   0.9377
B( 20-S , 21-C ) :   1.2771 B( 20-S , 24-C ) :   1.2555 B( 21-C , 22-N ) :   1.6827
B( 21-C , 39-C ) :  -0.1165 B( 21-C , 40-C ) :   0.9686 B( 21-C , 41-S ) :  -0.1211
B( 22-N , 23-N ) :   1.1263 B( 23-N , 24-C ) :   1.7176 B( 24-C , 25-C ) :   1.0024
B( 25-C , 26-N ) :   1.7191 B( 25-C , 29-S ) :   1.2771 B( 26-N , 27-N ) :   1.0918
B( 27-N , 28-C ) :   1.6507 B( 28-C , 29-S ) :   1.2686 B( 30-C , 31-C ) :   1.2669
B( 30-C , 33-S ) :   0.1251 B( 30-C , 34-C ) :   1.6965 B( 30-C , 43-H ) :   0.9565
B( 31-C , 32-C ) :   1.4316 B( 31-C , 38-O ) :   1.1752 B( 32-C , 33-S ) :   1.2666
B( 32-C , 35-C ) :   0.9341 B( 33-S , 34-C ) :   1.2651 B( 34-C , 53-H ) :   0.9416
B( 35-C , 36-C ) :   1.4808 B( 35-C , 41-S ) :   1.3486 B( 36-C , 37-C ) :   0.9793
B( 36-C , 39-C ) :   1.2347 B( 36-C , 40-C ) :  -0.1377 B( 37-C , 38-O ) :   0.8658
B( 37-C , 42-C ) :   1.0105 B( 37-C , 48-C ) :   0.9619 B( 39-C , 40-C ) :   1.6758
B( 39-C , 41-S ) :   0.1217 B( 39-C , 44-H ) :   0.9355 B( 40-C , 41-S ) :   1.2507
B( 42-C , 45-H ) :   0.9631 B( 42-C , 46-H ) :   0.9637 B( 42-C , 47-H ) :   0.9724
B( 48-C , 49-H ) :   0.9785 B( 48-C , 50-H ) :   0.9595 B( 48-C , 51-H ) :   0.9737

Dispersion correction           -0.026419561
FINAL SINGLE POINT ENERGY     -2980.947324999465

DIPOLE MOMENT
-------------
                                X             Y             Z
Electronic contribution:     -3.78532       2.33099     -14.94287
Nuclear contribution   :      4.29834      -1.75065      13.02097
                        -----------------------------------------
Total Dipole Moment    :      0.51302       0.58033      -1.92191
                        -----------------------------------------
Magnitude (a.u.)       :      2.07212
Magnitude (Debye)      :      5.26692

                             ****ORCA TERMINATED NORMALLY****
TOTAL RUN TIME: 0 days 0 hours 15 minutes 16 seconds 815 msec
