                         Program Version 4.0.0 -  RELEASE  -
|  1> #
|  2> !wB97X-D3 def2-TZVP def2/J RIJCOSX Grid5 FinalGrid6 TightSCF
|  3> %pal
|  4>  nprocs 24
|  5> end
|  6> %tddft
|  7>   Mode sTDDFT
|  8>   nroots 2
|  9>   Ethresh 10.0
| 10>   maxcore 5000
| 11>   triplets true
| 12> end
| 13> * xyz 0 1
| 14> C -4.36223762 -2.57067776 1.21410517
| 15> C -3.64695599 -1.53267635 0.62288817
| 16> C -4.34857165 -0.50763252 -0.04020383
| 17> C -5.77017764 -0.57020946 -0.06921872
| 18> C -6.49312564 -1.61890597 0.51977252
| 19> C -5.76653756 -2.61877289 1.16095355
| 20> C -3.97362675 0.71581320 -0.73198229
| 21> C -5.19719826 1.33592024 -1.12482364
| 22> N -6.25818741 0.54114096 -0.73387081
| 23> C -5.25361221 2.57336192 -1.78258802
| 24> C -4.04521890 3.21727848 -2.04033036
| 25> C -2.82775315 2.63589688 -1.66556371
| 26> C -2.75230018 1.38210354 -1.02832665
| 27> H -1.90394262 3.16081809 -1.89806762
| 28> H -7.23660157 0.75752535 -0.87977567
| 29> H -4.04281757 4.18103571 -2.54116564
| 30> H -2.56215273 -1.52143955 0.67310508
| 31> H -7.57878916 -1.64496324 0.48029601
| 32> H -6.29162223 -3.44712025 1.62914486
| 33> H -3.82527502 -3.36457089 1.72598238
| 34> S 3.24730029 -1.14214506 0.21816546
| 35> C 4.67246030 -0.10627423 0.45897637
| 36> N 4.39509938 1.18902560 0.36644770
| 37> N 3.08282188 1.45260895 0.10768575
| 38> C 2.33618933 0.36021752 -0.00199700
| 39> C 0.91742471 0.37585852 -0.27304010
| 40> N 0.17853063 -0.72058216 -0.38667420
| 41> N -1.13790685 -0.46062858 -0.64423127
| 42> C -1.42823004 0.82976197 -0.72582412
| 43> S -0.00194288 1.87014501 -0.49010669
| 44> N 9.29508043 0.69510002 1.31842565
| 45> C 8.41889314 -0.31938751 1.18175339
| 46> C 7.13349260 0.24322143 0.91886541
| 47> N 7.26074368 1.58057754 0.90252055
| 48> O 8.56953386 1.82171414 1.14542734
| 49> C 6.00532019 -0.62504306 0.72956104
| 50> C 6.28407722 -1.98669579 0.82424419
| 51> N 7.52190014 -2.52696181 1.07742706
| 52> C 8.57371623 -1.73807135 1.25455023
| 53> H 5.47046826 -2.70791020 0.69053648
| 54> H -6.20343922 3.01575544 -2.06932402
| 55> H 9.54497052 -2.20401187 1.45448001
| 56> *
| 57> $new_job
| 58> #
| 59> !wB97X-D3 def2-TZVP def2/J RIJCOSX Grid5 FinalGrid6 TightSCF
| 60> %pal
| 61>  nprocs 24
| 62> end
| 63> %elprop
| 64>    dipole     true
| 65>    quadrupole true
| 66> end
| 67> %tddft
| 68>   Mode sTDDFT
| 69>   nroots 2
| 70>   Ethresh 10.0
| 71>   maxcore 5000
| 72> end
| 73> * xyz 0 1
| 74> C -4.36223762 -2.57067776 1.21410517
| 75> C -3.64695599 -1.53267635 0.62288817
| 76> C -4.34857165 -0.50763252 -0.04020383
| 77> C -5.77017764 -0.57020946 -0.06921872
| 78> C -6.49312564 -1.61890597 0.51977252
| 79> C -5.76653756 -2.61877289 1.16095355
| 80> C -3.97362675 0.71581320 -0.73198229
| 81> C -5.19719826 1.33592024 -1.12482364
| 82> N -6.25818741 0.54114096 -0.73387081
| 83> C -5.25361221 2.57336192 -1.78258802
| 84> C -4.04521890 3.21727848 -2.04033036
| 85> C -2.82775315 2.63589688 -1.66556371
| 86> C -2.75230018 1.38210354 -1.02832665
| 87> H -1.90394262 3.16081809 -1.89806762
| 88> H -7.23660157 0.75752535 -0.87977567
| 89> H -4.04281757 4.18103571 -2.54116564
| 90> H -2.56215273 -1.52143955 0.67310508
| 91> H -7.57878916 -1.64496324 0.48029601
| 92> H -6.29162223 -3.44712025 1.62914486
| 93> H -3.82527502 -3.36457089 1.72598238
| 94> S 3.24730029 -1.14214506 0.21816546
| 95> C 4.67246030 -0.10627423 0.45897637
| 96> N 4.39509938 1.18902560 0.36644770
| 97> N 3.08282188 1.45260895 0.10768575
| 98> C 2.33618933 0.36021752 -0.00199700
| 99> C 0.91742471 0.37585852 -0.27304010
|100> N 0.17853063 -0.72058216 -0.38667420
|101> N -1.13790685 -0.46062858 -0.64423127
|102> C -1.42823004 0.82976197 -0.72582412
|103> S -0.00194288 1.87014501 -0.49010669
|104> N 9.29508043 0.69510002 1.31842565
|105> C 8.41889314 -0.31938751 1.18175339
|106> C 7.13349260 0.24322143 0.91886541
|107> N 7.26074368 1.58057754 0.90252055
|108> O 8.56953386 1.82171414 1.14542734
|109> C 6.00532019 -0.62504306 0.72956104
|110> C 6.28407722 -1.98669579 0.82424419
|111> N 7.52190014 -2.52696181 1.07742706
|112> C 8.57371623 -1.73807135 1.25455023
|113> H 5.47046826 -2.70791020 0.69053648
|114> H -6.20343922 3.01575544 -2.06932402
|115> H 9.54497052 -2.20401187 1.45448001
|116> *
|117>
|118>                          ****END OF INPUT****
 Total Charge           Charge          ....    0
 Multiplicity           Mult            ....    1
 Number of Electrons    NEL             ....  232
Dispersion correction           -0.018671329
FINAL SINGLE POINT ENERGY     -2115.840140641691

CARTESIAN COORDINATES (ANGSTROEM)
---------------------------------
  C     -4.362238   -2.570678    1.214105
  C     -3.646956   -1.532676    0.622888
  C     -4.348572   -0.507633   -0.040204
  C     -5.770178   -0.570209   -0.069219
  C     -6.493126   -1.618906    0.519773
  C     -5.766538   -2.618773    1.160954
  C     -3.973627    0.715813   -0.731982
  C     -5.197198    1.335920   -1.124824
  N     -6.258187    0.541141   -0.733871
  C     -5.253612    2.573362   -1.782588
  C     -4.045219    3.217278   -2.040330
  C     -2.827753    2.635897   -1.665564
  C     -2.752300    1.382104   -1.028327
  H     -1.903943    3.160818   -1.898068
  H     -7.236602    0.757525   -0.879776
  H     -4.042818    4.181036   -2.541166
  H     -2.562153   -1.521440    0.673105
  H     -7.578789   -1.644963    0.480296
  H     -6.291622   -3.447120    1.629145
  H     -3.825275   -3.364571    1.725982
  S      3.247300   -1.142145    0.218165
  C      4.672460   -0.106274    0.458976
  N      4.395099    1.189026    0.366448
  N      3.082822    1.452609    0.107686
  C      2.336189    0.360218   -0.001997
  C      0.917425    0.375859   -0.273040
  N      0.178531   -0.720582   -0.386674
  N     -1.137907   -0.460629   -0.644231
  C     -1.428230    0.829762   -0.725824
  S     -0.001943    1.870145   -0.490107
  N      9.295080    0.695100    1.318426
  C      8.418893   -0.319388    1.181753
  C      7.133493    0.243221    0.918865
  N      7.260744    1.580578    0.902521
  O      8.569534    1.821714    1.145427
  C      6.005320   -0.625043    0.729561
  C      6.284077   -1.986696    0.824244
  N      7.521900   -2.526962    1.077427
  C      8.573716   -1.738071    1.254550
  H      5.470468   -2.707910    0.690536
  H     -6.203439    3.015755   -2.069324
  H      9.544971   -2.204012    1.454480

 Multiplicity           Mult            ....    1
 Number of Electrons    NEL             ....  232
 Basis Dimension        Dim             .... 1064

ORBITAL ENERGIES
----------------

  NO   OCC          E(Eh)            E(eV)
   0   2.0000     -89.022154     -2422.4160
   1   2.0000     -89.014737     -2422.2141
   2   2.0000     -19.400141      -527.9047
   3   2.0000     -14.528550      -395.3419
   4   2.0000     -14.519824      -395.1045
   5   2.0000     -14.484022      -394.1303
   6   2.0000     -14.481521      -394.0622
   7   2.0000     -14.480176      -394.0256
   8   2.0000     -14.474688      -393.8763
   9   2.0000     -14.470759      -393.7694
  10   2.0000     -14.470022      -393.7493
  11   2.0000     -10.392769      -282.8016
  12   2.0000     -10.390527      -282.7406
  13   2.0000     -10.386398      -282.6283
  14   2.0000     -10.381853      -282.5046
  15   2.0000     -10.376625      -282.3623
  16   2.0000     -10.366414      -282.0845
  17   2.0000     -10.365274      -282.0534
  18   2.0000     -10.362812      -281.9864
  19   2.0000     -10.358185      -281.8605
  20   2.0000     -10.339116      -281.3417
  21   2.0000     -10.330050      -281.0950
  22   2.0000     -10.325658      -280.9754
  23   2.0000     -10.309851      -280.5453
  24   2.0000     -10.303917      -280.3838
  25   2.0000     -10.300382      -280.2876
  26   2.0000     -10.299771      -280.2710
  27   2.0000     -10.293128      -280.0902
  28   2.0000     -10.288190      -279.9559
  29   2.0000     -10.287249      -279.9303
  30   2.0000     -10.281679      -279.7787
  31   2.0000     -10.274753      -279.5902
  32   2.0000      -8.118327      -220.9109
  33   2.0000      -8.110919      -220.7093
  34   2.0000      -6.071393      -165.2110
  35   2.0000      -6.067560      -165.1067
  36   2.0000      -6.065386      -165.0475
  37   2.0000      -6.064010      -165.0101
  38   2.0000      -6.060066      -164.9028
  39   2.0000      -6.058019      -164.8471
  40   2.0000      -1.345131       -36.6029
  41   2.0000      -1.168192       -31.7881
  42   2.0000      -1.158214       -31.5166
  43   2.0000      -1.112056       -30.2606
  44   2.0000      -1.102872       -30.0107
  45   2.0000      -1.053166       -28.6581
  46   2.0000      -1.017212       -27.6798
  47   2.0000      -1.000993       -27.2384
  48   2.0000      -0.989051       -26.9134
  49   2.0000      -0.972574       -26.4651
  50   2.0000      -0.967011       -26.3137
  51   2.0000      -0.945184       -25.7198
  52   2.0000      -0.925286       -25.1783
  53   2.0000      -0.914138       -24.8750
  54   2.0000      -0.906402       -24.6644
  55   2.0000      -0.879987       -23.9457
  56   2.0000      -0.851343       -23.1662
  57   2.0000      -0.846894       -23.0452
  58   2.0000      -0.845482       -23.0067
  59   2.0000      -0.804518       -21.8920
  60   2.0000      -0.788075       -21.4446
  61   2.0000      -0.781373       -21.2622
  62   2.0000      -0.765331       -20.8257
  63   2.0000      -0.736101       -20.0303
  64   2.0000      -0.728925       -19.8351
  65   2.0000      -0.719066       -19.5668
  66   2.0000      -0.709339       -19.3021
  67   2.0000      -0.688088       -18.7238
  68   2.0000      -0.677710       -18.4414
  69   2.0000      -0.672296       -18.2941
  70   2.0000      -0.658932       -17.9304
  71   2.0000      -0.644078       -17.5262
  72   2.0000      -0.640016       -17.4157
  73   2.0000      -0.629557       -17.1311
  74   2.0000      -0.621502       -16.9119
  75   2.0000      -0.615920       -16.7600
  76   2.0000      -0.607107       -16.5202
  77   2.0000      -0.584459       -15.9039
  78   2.0000      -0.580138       -15.7864
  79   2.0000      -0.574489       -15.6326
  80   2.0000      -0.569595       -15.4995
  81   2.0000      -0.563710       -15.3393
  82   2.0000      -0.559273       -15.2186
  83   2.0000      -0.552207       -15.0263
  84   2.0000      -0.550432       -14.9780
  85   2.0000      -0.543021       -14.7764
  86   2.0000      -0.536713       -14.6047
  87   2.0000      -0.534258       -14.5379
  88   2.0000      -0.530780       -14.4432
  89   2.0000      -0.526309       -14.3216
  90   2.0000      -0.523796       -14.2532
  91   2.0000      -0.514370       -13.9967
  92   2.0000      -0.483001       -13.1431
  93   2.0000      -0.478563       -13.0224
  94   2.0000      -0.472675       -12.8622
  95   2.0000      -0.469172       -12.7668
  96   2.0000      -0.460166       -12.5218
  97   2.0000      -0.450417       -12.2565
  98   2.0000      -0.448492       -12.2041
  99   2.0000      -0.440498       -11.9866
 100   2.0000      -0.438920       -11.9436
 101   2.0000      -0.427417       -11.6306
 102   2.0000      -0.424803       -11.5595
 103   2.0000      -0.424346       -11.5471
 104   2.0000      -0.411388       -11.1944
 105   2.0000      -0.409674       -11.1478
 106   2.0000      -0.401720       -10.9314
 107   2.0000      -0.397982       -10.8296
 108   2.0000      -0.390012       -10.6128
 109   2.0000      -0.383434       -10.4338
 110   2.0000      -0.378661       -10.3039
 111   2.0000      -0.372798       -10.1443
 112   2.0000      -0.350022        -9.5246
 113   2.0000      -0.330799        -9.0015
 114   2.0000      -0.304855        -8.2955
 115   2.0000      -0.294941        -8.0257
 116   0.0000      -0.067077        -1.8253
 117   0.0000      -0.032525        -0.8851
 118   0.0000       0.003486         0.0949
 119   0.0000       0.032137         0.8745
 120   0.0000       0.040868         1.1121

MULLIKEN ATOMIC CHARGES
-----------------------
   0 C :   -0.174940
   1 C :   -0.128894
   2 C :   -0.030186
   3 C :    0.172070
   4 C :   -0.236959
   5 C :   -0.079183
   6 C :   -0.025698
   7 C :    0.187075
   8 N :   -0.302279
   9 C :   -0.222586
  10 C :   -0.096855
  11 C :   -0.281635
  12 C :    0.114878
  13 H :    0.130733
  14 H :    0.237759
  15 H :    0.128646
  16 H :    0.155038
  17 H :    0.114191
  18 H :    0.123445
  19 H :    0.119295
  20 S :    0.059727
  21 C :    0.148841
  22 N :   -0.093513
  23 N :   -0.192160
  24 C :    0.109238
  25 C :    0.130858
  26 N :   -0.168070
  27 N :   -0.192140
  28 C :    0.172209
  29 S :    0.072841
  30 N :   -0.069419
  31 C :   -0.001759
  32 C :    0.018659
  33 N :   -0.049012
  34 O :    0.019449
  35 C :   -0.047493
  36 C :   -0.034586
  37 N :   -0.259951
  38 C :    0.023510
  39 H :    0.154771
  40 H :    0.123505
  41 H :    0.170580
Sum of atomic charges:   -0.0000000

LOEWDIN ATOMIC CHARGES
----------------------
   0 C :   -0.157312
   1 C :   -0.092152
   2 C :   -0.078165
   3 C :   -0.143930
   4 C :   -0.135320
   5 C :   -0.137912
   6 C :   -0.027752
   7 C :   -0.142755
   8 N :    0.202263
   9 C :   -0.115672
  10 C :   -0.140208
  11 C :   -0.121974
  12 C :   -0.117057
  13 H :    0.145684
  14 H :    0.194035
  15 H :    0.148512
  16 H :    0.153536
  17 H :    0.142905
  18 H :    0.144950
  19 H :    0.144214
  20 S :    0.738575
  21 C :   -0.394723
  22 N :    0.069247
  23 N :    0.052182
  24 C :   -0.449847
  25 C :   -0.462230
  26 N :    0.046786
  27 N :    0.048745
  28 C :   -0.370608
  29 S :    0.744964
  30 N :    0.055380
  31 C :   -0.238210
  32 C :   -0.189326
  33 N :    0.068180
  34 O :    0.238556
  35 C :   -0.130385
  36 C :   -0.143815
  37 N :    0.132505
  38 C :   -0.128352
  39 H :    0.147336
  40 H :    0.146430
  41 H :    0.152718

  Mayer bond orders larger than 0.1
B(  0-C ,  1-C ) :   1.5378 B(  0-C ,  5-C ) :   1.3529 B(  0-C , 19-H ) :   0.9861
B(  1-C ,  2-C ) :   1.2655 B(  1-C , 16-H ) :   0.9368 B(  2-C ,  3-C ) :   1.3550
B(  2-C ,  6-C ) :   1.0842 B(  3-C ,  4-C ) :   1.3045 B(  3-C ,  8-N ) :   1.1160
B(  4-C ,  5-C ) :   1.4843 B(  4-C , 17-H ) :   0.9759 B(  5-C , 18-H ) :   0.9809
B(  6-C ,  7-C ) :   1.3210 B(  6-C , 12-C ) :   1.2445 B(  7-C ,  8-N ) :   1.1569
B(  7-C ,  9-C ) :   1.2861 B(  8-N , 14-H ) :   0.9120 B(  9-C , 10-C ) :   1.4666
B(  9-C , 40-H ) :   0.9736 B( 10-C , 11-C ) :   1.4217 B( 10-C , 15-H ) :   0.9806
B( 11-C , 12-C ) :   1.4046 B( 11-C , 13-H ) :   0.9603 B( 12-C , 28-C ) :   0.9321
B( 20-S , 21-C ) :   1.2846 B( 20-S , 24-C ) :   1.3196 B( 21-C , 22-N ) :   1.7156
B( 21-C , 35-C ) :   0.9946 B( 22-N , 23-N ) :   1.1446 B( 23-N , 24-C ) :   1.6924
B( 24-C , 25-C ) :   0.9376 B( 25-C , 26-N ) :   1.6981 B( 25-C , 29-S ) :   1.3059
B( 26-N , 27-N ) :   1.1290 B( 27-N , 28-C ) :   1.6363 B( 28-C , 29-S ) :   1.2942
B( 30-N , 31-C ) :   1.5849 B( 30-N , 33-N ) :   0.2022 B( 30-N , 34-O ) :   1.0865
B( 31-C , 32-C ) :   1.2286 B( 31-C , 38-C ) :   1.1135 B( 32-C , 33-N ) :   1.5757
B( 32-C , 35-C ) :   1.1278 B( 33-N , 34-O ) :   1.0309 B( 35-C , 36-C ) :   1.5454
B( 36-C , 37-N ) :   1.2990 B( 36-C , 39-H ) :   0.9727 B( 37-N , 38-C ) :   1.6848
B( 38-C , 41-H ) :   0.9676

Dispersion correction           -0.018671329
FINAL SINGLE POINT ENERGY     -2115.840140588142

DIPOLE MOMENT
-------------
                                X             Y             Z
Electronic contribution:     29.89545       4.63632       1.05619
Nuclear contribution   :    -31.58598      -4.90695      -1.26878
                        -----------------------------------------
Total Dipole Moment    :     -1.69053      -0.27063      -0.21259
                        -----------------------------------------
Magnitude (a.u.)       :      1.72520
Magnitude (Debye)      :      4.38512

                             ****ORCA TERMINATED NORMALLY****
TOTAL RUN TIME: 0 days 0 hours 11 minutes 19 seconds 495 msec
