                         Program Version 4.0.0 -  RELEASE  -
|  1> #
|  2> !wB97X-D3 def2-TZVP def2/J RIJCOSX Grid5 FinalGrid6 TightSCF
|  3> %pal
|  4>  nprocs 24
|  5> end
|  6> %tddft
|  7>   Mode sTDDFT
|  8>   nroots 2
|  9>   Ethresh 10.0
| 10>   maxcore 5000
| 11>   triplets true
| 12> end
| 13> * xyz 0 1
| 14> C 6.30674824 3.45277038 -0.13432880
| 15> C 5.53020877 2.34279778 0.08991085
| 16> C 6.11323044 1.03481868 0.05968723
| 17> C 7.52650272 0.90496892 -0.20098855
| 18> C 8.29911785 2.08985588 -0.42971430
| 19> C 7.70029574 3.32488602 -0.39707099
| 20> N 5.33293079 -0.05293424 0.27480168
| 21> C 5.92325560 -1.26989745 0.22892424
| 22> C 7.34689060 -1.39488255 -0.00253404
| 23> N 8.12936848 -0.30859848 -0.21937042
| 24> C 7.94605727 -2.69508130 0.00631587
| 25> C 7.17362180 -3.80696083 0.23840545
| 26> C 5.77664121 -3.69205915 0.45504150
| 27> C 5.13293759 -2.46473229 0.44611417
| 28> H 5.19714978 -4.59883663 0.61097760
| 29> H 7.62672335 -4.79504912 0.24715237
| 30> H 9.01450395 -2.78520221 -0.17007573
| 31> H 8.28885620 4.22215832 -0.57136019
| 32> H 4.46572597 2.44050561 0.28869215
| 33> H 5.86194994 4.44447944 -0.11361909
| 34> S 0.56538600 0.63457974 -1.06249479
| 35> C 0.35153481 -0.76036399 -0.00662244
| 36> C -0.97980143 -0.91914725 0.31932546
| 37> C -1.84526855 0.06519182 -0.26708791
| 38> C -1.14555617 0.97575740 -1.04473095
| 39> C 1.47543988 -1.56932752 0.41298994
| 40> C 2.80427104 -1.41300019 0.07335984
| 41> C 3.67246115 -2.39413077 0.65813275
| 42> C 2.97761149 -3.30132603 1.43923449
| 43> S 1.27073936 -2.95350468 1.48471975
| 44> H 3.14789224 -0.62880581 -0.59227223
| 45> H -1.33696463 -1.71867681 0.96210097
| 46> H 3.39995820 -4.12057071 2.00752572
| 47> H -1.56114089 1.81108726 -1.59345295
| 48> C -9.32394250 -0.66568884 1.01807206
| 49> C -8.08697706 -0.11005664 0.56827103
| 50> C -6.96377995 -0.74485569 1.09164967
| 51> S -7.44405297 -2.04556013 2.17386106
| 52> C -9.13671051 -1.71044755 1.89177692
| 53> C -5.66167295 -0.34174398 0.64581946
| 54> C -5.54181320 0.76035545 -0.19017727
| 55> C -6.74938600 1.63273532 -0.52607686
| 56> O -8.02508636 0.90275913 -0.33289547
| 57> C -4.19609621 1.00772257 -0.58336304
| 58> C -3.28553843 0.09891742 -0.06698248
| 59> S -4.11091359 -1.09963245 0.93884284
| 60> C -6.74811668 2.07558626 -1.99850028
| 61> H -10.29892125 -0.30539407 0.71107576
| 62> H -3.90351859 1.83120523 -1.22644603
| 63> H -7.64349353 2.64971963 -2.22364294
| 64> H -5.88143098 2.69649708 -2.21190576
| 65> H -6.72062987 1.21273079 -2.65900648
| 66> C -6.79687886 2.86069448 0.41605360
| 67> H -5.90176849 3.46672448 0.29769701
| 68> H -6.85620845 2.53898573 1.45304577
| 69> H -7.66461722 3.47923541 0.19904684
| 70> H 9.36358882 1.99479441 -0.62907218
| 71> H -9.91161397 -2.28605328 2.38106807
| 72> *
| 73> $new_job
| 74> #
| 75> !wB97X-D3 def2-TZVP def2/J RIJCOSX Grid5 FinalGrid6 TightSCF
| 76> %pal
| 77>  nprocs 24
| 78> end
| 79> %elprop
| 80>    dipole     true
| 81>    quadrupole true
| 82> end
| 83> %tddft
| 84>   Mode sTDDFT
| 85>   nroots 2
| 86>   Ethresh 10.0
| 87>   maxcore 5000
| 88> end
| 89> * xyz 0 1
| 90> C 6.30674824 3.45277038 -0.13432880
| 91> C 5.53020877 2.34279778 0.08991085
| 92> C 6.11323044 1.03481868 0.05968723
| 93> C 7.52650272 0.90496892 -0.20098855
| 94> C 8.29911785 2.08985588 -0.42971430
| 95> C 7.70029574 3.32488602 -0.39707099
| 96> N 5.33293079 -0.05293424 0.27480168
| 97> C 5.92325560 -1.26989745 0.22892424
| 98> C 7.34689060 -1.39488255 -0.00253404
| 99> N 8.12936848 -0.30859848 -0.21937042
|100> C 7.94605727 -2.69508130 0.00631587
|101> C 7.17362180 -3.80696083 0.23840545
|102> C 5.77664121 -3.69205915 0.45504150
|103> C 5.13293759 -2.46473229 0.44611417
|104> H 5.19714978 -4.59883663 0.61097760
|105> H 7.62672335 -4.79504912 0.24715237
|106> H 9.01450395 -2.78520221 -0.17007573
|107> H 8.28885620 4.22215832 -0.57136019
|108> H 4.46572597 2.44050561 0.28869215
|109> H 5.86194994 4.44447944 -0.11361909
|110> S 0.56538600 0.63457974 -1.06249479
|111> C 0.35153481 -0.76036399 -0.00662244
|112> C -0.97980143 -0.91914725 0.31932546
|113> C -1.84526855 0.06519182 -0.26708791
|114> C -1.14555617 0.97575740 -1.04473095
|115> C 1.47543988 -1.56932752 0.41298994
|116> C 2.80427104 -1.41300019 0.07335984
|117> C 3.67246115 -2.39413077 0.65813275
|118> C 2.97761149 -3.30132603 1.43923449
|119> S 1.27073936 -2.95350468 1.48471975
|120> H 3.14789224 -0.62880581 -0.59227223
|121> H -1.33696463 -1.71867681 0.96210097
|122> H 3.39995820 -4.12057071 2.00752572
|123> H -1.56114089 1.81108726 -1.59345295
|124> C -9.32394250 -0.66568884 1.01807206
|125> C -8.08697706 -0.11005664 0.56827103
|126> C -6.96377995 -0.74485569 1.09164967
|127> S -7.44405297 -2.04556013 2.17386106
|128> C -9.13671051 -1.71044755 1.89177692
|129> C -5.66167295 -0.34174398 0.64581946
|130> C -5.54181320 0.76035545 -0.19017727
|131> C -6.74938600 1.63273532 -0.52607686
|132> O -8.02508636 0.90275913 -0.33289547
|133> C -4.19609621 1.00772257 -0.58336304
|134> C -3.28553843 0.09891742 -0.06698248
|135> S -4.11091359 -1.09963245 0.93884284
|136> C -6.74811668 2.07558626 -1.99850028
|137> H -10.29892125 -0.30539407 0.71107576
|138> H -3.90351859 1.83120523 -1.22644603
|139> H -7.64349353 2.64971963 -2.22364294
|140> H -5.88143098 2.69649708 -2.21190576
|141> H -6.72062987 1.21273079 -2.65900648
|142> C -6.79687886 2.86069448 0.41605360
|143> H -5.90176849 3.46672448 0.29769701
|144> H -6.85620845 2.53898573 1.45304577
|145> H -7.66461722 3.47923541 0.19904684
|146> H 9.36358882 1.99479441 -0.62907218
|147> H -9.91161397 -2.28605328 2.38106807
|148> *
|149>
|150>                          ****END OF INPUT****
 Total Charge           Charge          ....    0
 Multiplicity           Mult            ....    1
 Number of Electrons    NEL             ....  292
Dispersion correction           -0.029329707
FINAL SINGLE POINT ENERGY     -2970.948247375658

CARTESIAN COORDINATES (ANGSTROEM)
---------------------------------
  C      6.306748    3.452770   -0.134329
  C      5.530209    2.342798    0.089911
  C      6.113230    1.034819    0.059687
  C      7.526503    0.904969   -0.200989
  C      8.299118    2.089856   -0.429714
  C      7.700296    3.324886   -0.397071
  N      5.332931   -0.052934    0.274802
  C      5.923256   -1.269897    0.228924
  C      7.346891   -1.394883   -0.002534
  N      8.129368   -0.308598   -0.219370
  C      7.946057   -2.695081    0.006316
  C      7.173622   -3.806961    0.238405
  C      5.776641   -3.692059    0.455041
  C      5.132938   -2.464732    0.446114
  H      5.197150   -4.598837    0.610978
  H      7.626723   -4.795049    0.247152
  H      9.014504   -2.785202   -0.170076
  H      8.288856    4.222158   -0.571360
  H      4.465726    2.440506    0.288692
  H      5.861950    4.444479   -0.113619
  S      0.565386    0.634580   -1.062495
  C      0.351535   -0.760364   -0.006622
  C     -0.979801   -0.919147    0.319325
  C     -1.845269    0.065192   -0.267088
  C     -1.145556    0.975757   -1.044731
  C      1.475440   -1.569328    0.412990
  C      2.804271   -1.413000    0.073360
  C      3.672461   -2.394131    0.658133
  C      2.977611   -3.301326    1.439234
  S      1.270739   -2.953505    1.484720
  H      3.147892   -0.628806   -0.592272
  H     -1.336965   -1.718677    0.962101
  H      3.399958   -4.120571    2.007526
  H     -1.561141    1.811087   -1.593453
  C     -9.323942   -0.665689    1.018072
  C     -8.086977   -0.110057    0.568271
  C     -6.963780   -0.744856    1.091650
  S     -7.444053   -2.045560    2.173861
  C     -9.136711   -1.710448    1.891777
  C     -5.661673   -0.341744    0.645819
  C     -5.541813    0.760355   -0.190177
  C     -6.749386    1.632735   -0.526077
  O     -8.025086    0.902759   -0.332895
  C     -4.196096    1.007723   -0.583363
  C     -3.285538    0.098917   -0.066982
  S     -4.110914   -1.099632    0.938843
  C     -6.748117    2.075586   -1.998500
  H    -10.298921   -0.305394    0.711076
  H     -3.903519    1.831205   -1.226446
  H     -7.643494    2.649720   -2.223643
  H     -5.881431    2.696497   -2.211906
  H     -6.720630    1.212731   -2.659006
  C     -6.796879    2.860694    0.416054
  H     -5.901768    3.466724    0.297697
  H     -6.856208    2.538986    1.453046
  H     -7.664617    3.479235    0.199047
  H      9.363589    1.994794   -0.629072
  H     -9.911614   -2.286053    2.381068

 Multiplicity           Mult            ....    1
 Number of Electrons    NEL             ....  292
 Basis Dimension        Dim             .... 1322

ORBITAL ENERGIES
----------------

  NO   OCC          E(Eh)            E(eV)
   0   2.0000     -88.986027     -2421.4329
   1   2.0000     -88.985396     -2421.4157
   2   2.0000     -88.984078     -2421.3799
   3   2.0000     -88.982059     -2421.3249
   4   2.0000     -19.266070      -524.2564
   5   2.0000     -14.446369      -393.1057
   6   2.0000     -14.446069      -393.0975
   7   2.0000     -10.368319      -282.1363
   8   2.0000     -10.347883      -281.5802
   9   2.0000     -10.341890      -281.4171
  10   2.0000     -10.339158      -281.3428
  11   2.0000     -10.338634      -281.3285
  12   2.0000     -10.337999      -281.3113
  13   2.0000     -10.332950      -281.1739
  14   2.0000     -10.328790      -281.0607
  15   2.0000     -10.327868      -281.0356
  16   2.0000     -10.327017      -281.0124
  17   2.0000     -10.317763      -280.7606
  18   2.0000     -10.316873      -280.7364
  19   2.0000     -10.316253      -280.7195
  20   2.0000     -10.315803      -280.7073
  21   2.0000     -10.315127      -280.6889
  22   2.0000     -10.310596      -280.5656
  23   2.0000     -10.304591      -280.4022
  24   2.0000     -10.302578      -280.3474
  25   2.0000     -10.302222      -280.3377
  26   2.0000     -10.302148      -280.3357
  27   2.0000     -10.301719      -280.3240
  28   2.0000     -10.298513      -280.2368
  29   2.0000     -10.298349      -280.2323
  30   2.0000     -10.297304      -280.2039
  31   2.0000     -10.296752      -280.1889
  32   2.0000     -10.294042      -280.1151
  33   2.0000     -10.293410      -280.0979
  34   2.0000     -10.290306      -280.0135
  35   2.0000     -10.288268      -279.9580
  36   2.0000     -10.275810      -279.6190
  37   2.0000     -10.272029      -279.5161
  38   2.0000      -8.082160      -219.9268
  39   2.0000      -8.081644      -219.9127
  40   2.0000      -8.080362      -219.8778
  41   2.0000      -8.077929      -219.8116
  42   2.0000      -6.035498      -164.2342
  43   2.0000      -6.034921      -164.2185
  44   2.0000      -6.033664      -164.1843
  45   2.0000      -6.031405      -164.1229
  46   2.0000      -6.031357      -164.1216
  47   2.0000      -6.031034      -164.1128
  48   2.0000      -6.029563      -164.0728
  49   2.0000      -6.029203      -164.0629
  50   2.0000      -6.028528      -164.0446
  51   2.0000      -6.027420      -164.0144
  52   2.0000      -6.027286      -164.0108
  53   2.0000      -6.024721      -163.9410
  54   2.0000      -1.180451       -32.1217
  55   2.0000      -1.101481       -29.9728
  56   2.0000      -1.031590       -28.0710
  57   2.0000      -1.019825       -27.7508
  58   2.0000      -1.010212       -27.4893
  59   2.0000      -0.998780       -27.1782
  60   2.0000      -0.992154       -26.9979
  61   2.0000      -0.985825       -26.8257
  62   2.0000      -0.961996       -26.1772
  63   2.0000      -0.929173       -25.2841
  64   2.0000      -0.910558       -24.7775
  65   2.0000      -0.900068       -24.4921
  66   2.0000      -0.881658       -23.9911
  67   2.0000      -0.877708       -23.8837
  68   2.0000      -0.867634       -23.6095
  69   2.0000      -0.862450       -23.4685
  70   2.0000      -0.850517       -23.1437
  71   2.0000      -0.843668       -22.9574
  72   2.0000      -0.836006       -22.7489
  73   2.0000      -0.819644       -22.3037
  74   2.0000      -0.815561       -22.1926
  75   2.0000      -0.801775       -21.8174
  76   2.0000      -0.796801       -21.6820
  77   2.0000      -0.762877       -20.7589
  78   2.0000      -0.733517       -19.9600
  79   2.0000      -0.732109       -19.9217
  80   2.0000      -0.723193       -19.6791
  81   2.0000      -0.717761       -19.5313
  82   2.0000      -0.705717       -19.2035
  83   2.0000      -0.694113       -18.8878
  84   2.0000      -0.678931       -18.4746
  85   2.0000      -0.673530       -18.3277
  86   2.0000      -0.666818       -18.1450
  87   2.0000      -0.655077       -17.8255
  88   2.0000      -0.650791       -17.7089
  89   2.0000      -0.642456       -17.4821
  90   2.0000      -0.628253       -17.0956
  91   2.0000      -0.614998       -16.7349
  92   2.0000      -0.603363       -16.4183
  93   2.0000      -0.591586       -16.0979
  94   2.0000      -0.585017       -15.9191
  95   2.0000      -0.581197       -15.8152
  96   2.0000      -0.578553       -15.7432
  97   2.0000      -0.570364       -15.5204
  98   2.0000      -0.566615       -15.4184
  99   2.0000      -0.556140       -15.1333
 100   2.0000      -0.553682       -15.0665
 101   2.0000      -0.549847       -14.9621
 102   2.0000      -0.542829       -14.7711
 103   2.0000      -0.537763       -14.6333
 104   2.0000      -0.530073       -14.4240
 105   2.0000      -0.527824       -14.3628
 106   2.0000      -0.520000       -14.1499
 107   2.0000      -0.518684       -14.1141
 108   2.0000      -0.509224       -13.8567
 109   2.0000      -0.507434       -13.8080
 110   2.0000      -0.502599       -13.6764
 111   2.0000      -0.501356       -13.6426
 112   2.0000      -0.500856       -13.6290
 113   2.0000      -0.497033       -13.5249
 114   2.0000      -0.495199       -13.4751
 115   2.0000      -0.488871       -13.3029
 116   2.0000      -0.483455       -13.1555
 117   2.0000      -0.480873       -13.0852
 118   2.0000      -0.477479       -12.9929
 119   2.0000      -0.471199       -12.8220
 120   2.0000      -0.469429       -12.7738
 121   2.0000      -0.462604       -12.5881
 122   2.0000      -0.461954       -12.5704
 123   2.0000      -0.460003       -12.5173
 124   2.0000      -0.456225       -12.4145
 125   2.0000      -0.452135       -12.3032
 126   2.0000      -0.449036       -12.2189
 127   2.0000      -0.446749       -12.1567
 128   2.0000      -0.440117       -11.9762
 129   2.0000      -0.430668       -11.7191
 130   2.0000      -0.429800       -11.6954
 131   2.0000      -0.423650       -11.5281
 132   2.0000      -0.412993       -11.2381
 133   2.0000      -0.407790       -11.0965
 134   2.0000      -0.398812       -10.8522
 135   2.0000      -0.379367       -10.3231
 136   2.0000      -0.362675        -9.8689
 137   2.0000      -0.350958        -9.5500
 138   2.0000      -0.344819        -9.3830
 139   2.0000      -0.340992        -9.2789
 140   2.0000      -0.339835        -9.2474
 141   2.0000      -0.336727        -9.1628
 142   2.0000      -0.322100        -8.7648
 143   2.0000      -0.305620        -8.3164
 144   2.0000      -0.286147        -7.7865
 145   2.0000      -0.257673        -7.0116
 146   0.0000      -0.042841        -1.1658
 147   0.0000       0.001029         0.0280
 148   0.0000       0.011835         0.3220
 149   0.0000       0.029817         0.8114
 150   0.0000       0.042663         1.1609

MULLIKEN ATOMIC CHARGES
-----------------------
   0 C :   -0.074296
   1 C :   -0.273730
   2 C :    0.199076
   3 C :    0.187540
   4 C :   -0.254118
   5 C :   -0.068340
   6 N :   -0.308969
   7 C :    0.190622
   8 C :    0.176358
   9 N :   -0.244957
  10 C :   -0.251713
  11 C :   -0.083058
  12 C :   -0.172099
  13 C :    0.005630
  14 H :    0.136040
  15 H :    0.128650
  16 H :    0.131127
  17 H :    0.132828
  18 H :    0.140350
  19 H :    0.132624
  20 S :    0.053049
  21 C :    0.043586
  22 C :   -0.239856
  23 C :    0.071129
  24 C :   -0.246215
  25 C :    0.029397
  26 C :   -0.244697
  27 C :    0.112525
  28 C :   -0.244290
  29 S :    0.051715
  30 H :    0.167919
  31 H :    0.166309
  32 H :    0.160014
  33 H :    0.148386
  34 C :   -0.258129
  35 C :    0.184509
  36 C :   -0.075094
  37 S :    0.051428
  38 C :   -0.172687
  39 C :    0.015656
  40 C :    0.077029
  41 C :    0.142570
  42 O :   -0.291576
  43 C :   -0.292092
  44 C :    0.091880
  45 S :    0.027970
  46 C :   -0.354888
  47 H :    0.142052
  48 H :    0.140923
  49 H :    0.136748
  50 H :    0.110159
  51 H :    0.139543
  52 C :   -0.360465
  53 H :    0.120839
  54 H :    0.140180
  55 H :    0.128635
  56 H :    0.133053
  57 H :    0.163222
Sum of atomic charges:   -0.0000000

LOEWDIN ATOMIC CHARGES
----------------------
   0 C :   -0.131644
   1 C :   -0.098127
   2 C :   -0.166273
   3 C :   -0.166935
   4 C :   -0.097585
   5 C :   -0.131709
   6 N :    0.208609
   7 C :   -0.123726
   8 C :   -0.164597
   9 N :    0.200901
  10 C :   -0.100117
  11 C :   -0.131686
  12 C :   -0.091419
  13 C :   -0.065796
  14 H :    0.152147
  15 H :    0.149164
  16 H :    0.153070
  17 H :    0.148209
  18 H :    0.153780
  19 H :    0.148281
  20 S :    0.714245
  21 C :   -0.347367
  22 C :   -0.140493
  23 C :   -0.210327
  24 C :   -0.347492
  25 C :   -0.352988
  26 C :   -0.123043
  27 C :   -0.158567
  28 C :   -0.345912
  29 S :    0.712699
  30 H :    0.150691
  31 H :    0.144269
  32 H :    0.132496
  33 H :    0.129663
  34 C :   -0.175108
  35 C :   -0.261486
  36 C :   -0.360646
  37 S :    0.687130
  38 C :   -0.374860
  39 C :   -0.332534
  40 C :   -0.123402
  41 C :   -0.286846
  42 O :    0.275465
  43 C :   -0.128199
  44 C :   -0.306291
  45 S :    0.739596
  46 C :   -0.246518
  47 H :    0.147241
  48 H :    0.145722
  49 H :    0.127376
  50 H :    0.124372
  51 H :    0.129051
  52 C :   -0.245794
  53 H :    0.126073
  54 H :    0.129655
  55 H :    0.124214
  56 H :    0.153253
  57 H :    0.130116

  Mayer bond orders larger than 0.1
B(  0-C ,  1-C ) :   1.6132 B(  0-C ,  5-C ) :   1.1869 B(  0-C , 19-H ) :   0.9829
B(  1-C ,  2-C ) :   1.1851 B(  1-C , 18-H ) :   0.9686 B(  2-C ,  3-C ) :   1.1641
B(  2-C ,  6-N ) :   1.4160 B(  3-C ,  4-C ) :   1.2012 B(  3-C ,  9-N ) :   1.4081
B(  4-C ,  5-C ) :   1.6197 B(  4-C , 56-H ) :   0.9736 B(  5-C , 17-H ) :   0.9801
B(  6-N ,  7-C ) :   1.3566 B(  7-C ,  8-C ) :   1.1973 B(  7-C , 13-C ) :   1.1197
B(  8-C ,  9-N ) :   1.4271 B(  8-C , 10-C ) :   1.2007 B( 10-C , 11-C ) :   1.5936
B( 10-C , 16-H ) :   0.9792 B( 11-C , 12-C ) :   1.2323 B( 11-C , 15-H ) :   0.9875
B( 12-C , 13-C ) :   1.5686 B( 12-C , 14-H ) :   0.9575 B( 13-C , 27-C ) :   0.8931
B( 20-S , 21-C ) :   1.2577 B( 20-S , 24-C ) :   1.2900 B( 21-C , 22-C ) :   1.5937
B( 21-C , 25-C ) :   0.9521 B( 22-C , 23-C ) :   1.2378 B( 22-C , 31-H ) :   0.8825
B( 23-C , 24-C ) :   1.6547 B( 23-C , 44-C ) :   0.9361 B( 24-C , 33-H ) :   0.9340
B( 25-C , 26-C ) :   1.5563 B( 25-C , 29-S ) :   1.2696 B( 26-C , 27-C ) :   1.2558
B( 26-C , 30-H ) :   0.9029 B( 27-C , 28-C ) :   1.6347 B( 28-C , 29-S ) :   1.2927
B( 28-C , 32-H ) :   0.9378 B( 34-C , 35-C ) :   1.2641 B( 34-C , 37-S ) :   0.1266
B( 34-C , 38-C ) :   1.7017 B( 34-C , 47-H ) :   0.9582 B( 35-C , 36-C ) :   1.4427
B( 35-C , 42-O ) :   1.1617 B( 36-C , 37-S ) :   1.2732 B( 36-C , 39-C ) :   0.9030
B( 37-S , 38-C ) :   1.2582 B( 38-C , 57-H ) :   0.9418 B( 39-C , 40-C ) :   1.5061
B( 39-C , 45-S ) :   1.3386 B( 40-C , 41-C ) :   0.9733 B( 40-C , 43-C ) :   1.2545
B( 41-C , 42-O ) :   0.8798 B( 41-C , 46-C ) :   0.9571 B( 41-C , 52-C ) :   1.0057
B( 43-C , 44-C ) :   1.6124 B( 43-C , 48-H ) :   0.8920 B( 44-C , 45-S ) :   1.2661
B( 46-C , 49-H ) :   0.9747 B( 46-C , 50-H ) :   0.9613 B( 46-C , 51-H ) :   0.9808
B( 52-C , 53-H ) :   0.9637 B( 52-C , 54-H ) :   0.9659 B( 52-C , 55-H ) :   0.9730

Dispersion correction           -0.029329707
FINAL SINGLE POINT ENERGY     -2970.948247308495

DIPOLE MOMENT
-------------
                                X             Y             Z
Electronic contribution:      8.09637     -18.07720       7.70786
Nuclear contribution   :     -7.88121      18.73400      -7.93904
                        -----------------------------------------
Total Dipole Moment    :      0.21516       0.65680      -0.23119
                        -----------------------------------------
Magnitude (a.u.)       :      0.72879
Magnitude (Debye)      :      1.85243

                             ****ORCA TERMINATED NORMALLY****
TOTAL RUN TIME: 0 days 0 hours 18 minutes 17 seconds 713 msec
