                         Program Version 4.0.0 -  RELEASE  -
|  1> #
|  2> !wB97X-D3 def2-TZVP def2/J RIJCOSX Grid5 FinalGrid6 TightSCF
|  3> %pal
|  4>  nprocs 24
|  5> end
|  6> %tddft
|  7>   Mode sTDDFT
|  8>   nroots 2
|  9>   Ethresh 10.0
| 10>   maxcore 5000
| 11>   triplets true
| 12> end
| 13> * xyz 0 1
| 14> C 4.67701271 -2.84167901 0.86166989
| 15> C 4.04870123 -1.63384150 0.56837233
| 16> C 4.83352278 -0.47876934 0.39098378
| 17> C 6.24550148 -0.59225051 0.52941731
| 18> C 6.88171639 -1.80926275 0.81786930
| 19> C 6.07491041 -2.93271387 0.98095824
| 20> C 4.55541049 0.92199260 0.11186663
| 21> C 5.82015534 1.58158601 0.11558313
| 22> N 6.81875171 0.65449952 0.35017286
| 23> C 5.96550525 2.96411629 -0.07143224
| 24> C 4.80268207 3.71020132 -0.25198335
| 25> C 3.54615517 3.09202062 -0.25861961
| 26> C 3.38482638 1.70225810 -0.09815561
| 27> H 2.66248664 3.70587435 -0.41730220
| 28> H 7.80740901 0.86306541 0.41570522
| 29> H 4.86763801 4.78536147 -0.39293739
| 30> H 2.96751106 -1.59033019 0.47478230
| 31> H 7.96247721 -1.86978092 0.91494918
| 32> H 6.53163988 -3.89308075 1.20554218
| 33> H 4.07568956 -3.73640185 0.99851364
| 34> S -2.75126586 -0.79922389 -0.54501004
| 35> C -1.79870569 0.63317988 -0.13378678
| 36> N -2.53822680 1.66859921 0.24442276
| 37> N -3.87933074 1.40845361 0.23559997
| 38> C -4.18380163 0.17326817 -0.14830509
| 39> C -0.35559531 0.66699817 -0.20353284
| 40> N 0.39290936 -0.35979298 -0.58393728
| 41> N 1.73488379 -0.08710158 -0.56789521
| 42> C 2.03173331 1.14052674 -0.17235089
| 43> S 0.58499137 2.10700334 0.21520436
| 44> C -6.67324272 0.47143063 0.08884809
| 45> C -5.55083198 -0.33860292 -0.23750114
| 46> C -5.81900584 -1.66794667 -0.65431585
| 47> C -7.12344304 -2.18091637 -0.74761711
| 48> C -8.20747357 -1.35158283 -0.41719208
| 49> C -7.98972355 -0.02456055 0.00177130
| 50> O -9.46260789 -1.84277732 -0.50619886
| 51> O -4.77367385 -2.46563044 -0.97220603
| 52> O -6.47981333 1.73974268 0.49008069
| 53> H -7.32170055 2.17320575 0.67829485
| 54> H -5.07559280 -3.34320082 -1.24097559
| 55> H -10.10921825 -1.17193031 -0.25190806
| 56> H -8.82975757 0.61655622 0.25734078
| 57> H 6.94511543 3.43372144 -0.06438012
| 58> H -7.29622509 -3.20208417 -1.06970542
| 59> *
| 60> $new_job
| 61> #
| 62> !wB97X-D3 def2-TZVP def2/J RIJCOSX Grid5 FinalGrid6 TightSCF
| 63> %pal
| 64>  nprocs 24
| 65> end
| 66> %elprop
| 67>    dipole     true
| 68>    quadrupole true
| 69> end
| 70> %tddft
| 71>   Mode sTDDFT
| 72>   nroots 2
| 73>   Ethresh 10.0
| 74>   maxcore 5000
| 75> end
| 76> * xyz 0 1
| 77> C 4.67701271 -2.84167901 0.86166989
| 78> C 4.04870123 -1.63384150 0.56837233
| 79> C 4.83352278 -0.47876934 0.39098378
| 80> C 6.24550148 -0.59225051 0.52941731
| 81> C 6.88171639 -1.80926275 0.81786930
| 82> C 6.07491041 -2.93271387 0.98095824
| 83> C 4.55541049 0.92199260 0.11186663
| 84> C 5.82015534 1.58158601 0.11558313
| 85> N 6.81875171 0.65449952 0.35017286
| 86> C 5.96550525 2.96411629 -0.07143224
| 87> C 4.80268207 3.71020132 -0.25198335
| 88> C 3.54615517 3.09202062 -0.25861961
| 89> C 3.38482638 1.70225810 -0.09815561
| 90> H 2.66248664 3.70587435 -0.41730220
| 91> H 7.80740901 0.86306541 0.41570522
| 92> H 4.86763801 4.78536147 -0.39293739
| 93> H 2.96751106 -1.59033019 0.47478230
| 94> H 7.96247721 -1.86978092 0.91494918
| 95> H 6.53163988 -3.89308075 1.20554218
| 96> H 4.07568956 -3.73640185 0.99851364
| 97> S -2.75126586 -0.79922389 -0.54501004
| 98> C -1.79870569 0.63317988 -0.13378678
| 99> N -2.53822680 1.66859921 0.24442276
|100> N -3.87933074 1.40845361 0.23559997
|101> C -4.18380163 0.17326817 -0.14830509
|102> C -0.35559531 0.66699817 -0.20353284
|103> N 0.39290936 -0.35979298 -0.58393728
|104> N 1.73488379 -0.08710158 -0.56789521
|105> C 2.03173331 1.14052674 -0.17235089
|106> S 0.58499137 2.10700334 0.21520436
|107> C -6.67324272 0.47143063 0.08884809
|108> C -5.55083198 -0.33860292 -0.23750114
|109> C -5.81900584 -1.66794667 -0.65431585
|110> C -7.12344304 -2.18091637 -0.74761711
|111> C -8.20747357 -1.35158283 -0.41719208
|112> C -7.98972355 -0.02456055 0.00177130
|113> O -9.46260789 -1.84277732 -0.50619886
|114> O -4.77367385 -2.46563044 -0.97220603
|115> O -6.47981333 1.73974268 0.49008069
|116> H -7.32170055 2.17320575 0.67829485
|117> H -5.07559280 -3.34320082 -1.24097559
|118> H -10.10921825 -1.17193031 -0.25190806
|119> H -8.82975757 0.61655622 0.25734078
|120> H 6.94511543 3.43372144 -0.06438012
|121> H -7.29622509 -3.20208417 -1.06970542
|122> *
|123>
|124>                          ****END OF INPUT****
 Total Charge           Charge          ....    0
 Multiplicity           Mult            ....    1
 Number of Electrons    NEL             ....  236
Dispersion correction           -0.020237732
FINAL SINGLE POINT ENERGY     -2142.075635531506

CARTESIAN COORDINATES (ANGSTROEM)
---------------------------------
  C      4.677013   -2.841679    0.861670
  C      4.048701   -1.633841    0.568372
  C      4.833523   -0.478769    0.390984
  C      6.245501   -0.592251    0.529417
  C      6.881716   -1.809263    0.817869
  C      6.074910   -2.932714    0.980958
  C      4.555410    0.921993    0.111867
  C      5.820155    1.581586    0.115583
  N      6.818752    0.654500    0.350173
  C      5.965505    2.964116   -0.071432
  C      4.802682    3.710201   -0.251983
  C      3.546155    3.092021   -0.258620
  C      3.384826    1.702258   -0.098156
  H      2.662487    3.705874   -0.417302
  H      7.807409    0.863065    0.415705
  H      4.867638    4.785361   -0.392937
  H      2.967511   -1.590330    0.474782
  H      7.962477   -1.869781    0.914949
  H      6.531640   -3.893081    1.205542
  H      4.075690   -3.736402    0.998514
  S     -2.751266   -0.799224   -0.545010
  C     -1.798706    0.633180   -0.133787
  N     -2.538227    1.668599    0.244423
  N     -3.879331    1.408454    0.235600
  C     -4.183802    0.173268   -0.148305
  C     -0.355595    0.666998   -0.203533
  N      0.392909   -0.359793   -0.583937
  N      1.734884   -0.087102   -0.567895
  C      2.031733    1.140527   -0.172351
  S      0.584991    2.107003    0.215204
  C     -6.673243    0.471431    0.088848
  C     -5.550832   -0.338603   -0.237501
  C     -5.819006   -1.667947   -0.654316
  C     -7.123443   -2.180916   -0.747617
  C     -8.207474   -1.351583   -0.417192
  C     -7.989724   -0.024561    0.001771
  O     -9.462608   -1.842777   -0.506199
  O     -4.773674   -2.465630   -0.972206
  O     -6.479813    1.739743    0.490081
  H     -7.321701    2.173206    0.678295
  H     -5.075593   -3.343201   -1.240976
  H    -10.109218   -1.171930   -0.251908
  H     -8.829758    0.616556    0.257341
  H      6.945115    3.433721   -0.064380
  H     -7.296225   -3.202084   -1.069705

 Multiplicity           Mult            ....    1
 Number of Electrons    NEL             ....  236
 Basis Dimension        Dim             .... 1082

ORBITAL ENERGIES
----------------

  NO   OCC          E(Eh)            E(eV)
   0   2.0000     -88.996825     -2421.7267
   1   2.0000     -88.991288     -2421.5761
   2   2.0000     -19.293464      -525.0019
   3   2.0000     -19.288743      -524.8734
   4   2.0000     -19.278239      -524.5876
   5   2.0000     -14.466278      -393.6474
   6   2.0000     -14.460905      -393.5012
   7   2.0000     -14.456343      -393.3771
   8   2.0000     -14.454848      -393.3364
   9   2.0000     -14.444008      -393.0414
  10   2.0000     -10.380811      -282.4762
  11   2.0000     -10.379621      -282.4438
  12   2.0000     -10.377551      -282.3875
  13   2.0000     -10.368093      -282.1301
  14   2.0000     -10.364709      -282.0381
  15   2.0000     -10.363326      -282.0004
  16   2.0000     -10.357887      -281.8524
  17   2.0000     -10.329899      -281.0909
  18   2.0000     -10.321693      -280.8676
  19   2.0000     -10.314908      -280.6829
  20   2.0000     -10.311545      -280.5914
  21   2.0000     -10.299666      -280.2681
  22   2.0000     -10.295194      -280.1465
  23   2.0000     -10.294250      -280.1208
  24   2.0000     -10.292407      -280.0706
  25   2.0000     -10.291132      -280.0359
  26   2.0000     -10.289017      -279.9784
  27   2.0000     -10.284362      -279.8517
  28   2.0000     -10.280444      -279.7451
  29   2.0000     -10.279486      -279.7190
  30   2.0000     -10.272800      -279.5371
  31   2.0000     -10.266649      -279.3697
  32   2.0000      -8.093095      -220.2243
  33   2.0000      -8.087122      -220.0618
  34   2.0000      -6.046171      -164.5247
  35   2.0000      -6.042263      -164.4183
  36   2.0000      -6.040453      -164.3691
  37   2.0000      -6.040179      -164.3616
  38   2.0000      -6.036193      -164.2532
  39   2.0000      -6.034025      -164.1942
  40   2.0000      -1.214474       -33.0475
  41   2.0000      -1.208215       -32.8772
  42   2.0000      -1.202013       -32.7084
  43   2.0000      -1.143238       -31.1091
  44   2.0000      -1.132649       -30.8210
  45   2.0000      -1.103358       -30.0239
  46   2.0000      -0.989462       -26.9246
  47   2.0000      -0.984914       -26.8009
  48   2.0000      -0.965665       -26.2771
  49   2.0000      -0.958731       -26.0884
  50   2.0000      -0.938916       -25.5492
  51   2.0000      -0.925182       -25.1755
  52   2.0000      -0.902526       -24.5590
  53   2.0000      -0.895331       -24.3632
  54   2.0000      -0.873954       -23.7815
  55   2.0000      -0.872910       -23.7531
  56   2.0000      -0.868315       -23.6280
  57   2.0000      -0.841960       -22.9109
  58   2.0000      -0.836531       -22.7632
  59   2.0000      -0.785797       -21.3826
  60   2.0000      -0.772126       -21.0106
  61   2.0000      -0.764419       -20.8009
  62   2.0000      -0.753227       -20.4964
  63   2.0000      -0.725589       -19.7443
  64   2.0000      -0.718317       -19.5464
  65   2.0000      -0.711005       -19.3474
  66   2.0000      -0.706192       -19.2165
  67   2.0000      -0.693990       -18.8844
  68   2.0000      -0.669887       -18.2285
  69   2.0000      -0.663900       -18.0656
  70   2.0000      -0.654735       -17.8163
  71   2.0000      -0.636792       -17.3280
  72   2.0000      -0.631003       -17.1705
  73   2.0000      -0.619691       -16.8627
  74   2.0000      -0.612416       -16.6647
  75   2.0000      -0.606566       -16.5055
  76   2.0000      -0.590074       -16.0567
  77   2.0000      -0.572442       -15.5769
  78   2.0000      -0.569249       -15.4900
  79   2.0000      -0.566233       -15.4080
  80   2.0000      -0.558080       -15.1861
  81   2.0000      -0.555485       -15.1155
  82   2.0000      -0.547984       -14.9114
  83   2.0000      -0.544051       -14.8044
  84   2.0000      -0.536842       -14.6082
  85   2.0000      -0.531876       -14.4731
  86   2.0000      -0.530449       -14.4343
  87   2.0000      -0.526367       -14.3232
  88   2.0000      -0.523762       -14.2523
  89   2.0000      -0.521917       -14.2021
  90   2.0000      -0.520646       -14.1675
  91   2.0000      -0.515992       -14.0408
  92   2.0000      -0.511794       -13.9266
  93   2.0000      -0.508563       -13.8387
  94   2.0000      -0.493861       -13.4387
  95   2.0000      -0.474601       -12.9146
  96   2.0000      -0.471575       -12.8322
  97   2.0000      -0.466766       -12.7014
  98   2.0000      -0.464186       -12.6312
  99   2.0000      -0.461310       -12.5529
 100   2.0000      -0.441271       -12.0076
 101   2.0000      -0.440958       -11.9991
 102   2.0000      -0.430551       -11.7159
 103   2.0000      -0.422578       -11.4989
 104   2.0000      -0.406146       -11.0518
 105   2.0000      -0.404705       -11.0126
 106   2.0000      -0.388778       -10.5792
 107   2.0000      -0.384462       -10.4617
 108   2.0000      -0.379243       -10.3197
 109   2.0000      -0.376835       -10.2542
 110   2.0000      -0.364670        -9.9232
 111   2.0000      -0.356640        -9.7047
 112   2.0000      -0.349926        -9.5220
 113   2.0000      -0.333631        -9.0786
 114   2.0000      -0.325231        -8.8500
 115   2.0000      -0.302015        -8.2182
 116   2.0000      -0.293970        -7.9993
 117   2.0000      -0.284121        -7.7313
 118   0.0000      -0.019989        -0.5439
 119   0.0000       0.015138         0.4119
 120   0.0000       0.042920         1.1679
 121   0.0000       0.058123         1.5816
 122   0.0000       0.061259         1.6669

MULLIKEN ATOMIC CHARGES
-----------------------
   0 C :   -0.176046
   1 C :   -0.129122
   2 C :   -0.029478
   3 C :    0.175384
   4 C :   -0.242882
   5 C :   -0.076595
   6 C :   -0.024618
   7 C :    0.186059
   8 N :   -0.301969
   9 C :   -0.225719
  10 C :   -0.094790
  11 C :   -0.276718
  12 C :    0.128015
  13 H :    0.130119
  14 H :    0.235484
  15 H :    0.125739
  16 H :    0.158600
  17 H :    0.111174
  18 H :    0.120704
  19 H :    0.117489
  20 S :    0.085613
  21 C :    0.080393
  22 N :   -0.207165
  23 N :   -0.105396
  24 C :    0.181621
  25 C :    0.135951
  26 N :   -0.172779
  27 N :   -0.192288
  28 C :    0.144753
  29 S :    0.058235
  30 C :    0.185021
  31 C :   -0.173928
  32 C :    0.316702
  33 C :   -0.354289
  34 C :    0.268961
  35 C :   -0.330799
  36 O :   -0.404313
  37 O :   -0.422034
  38 O :   -0.346821
  39 H :    0.321719
  40 H :    0.338483
  41 H :    0.333889
  42 H :    0.104357
  43 H :    0.119327
  44 H :    0.123957
Sum of atomic charges:   -0.0000000

LOEWDIN ATOMIC CHARGES
----------------------
   0 C :   -0.159004
   1 C :   -0.091046
   2 C :   -0.077557
   3 C :   -0.145099
   4 C :   -0.137683
   5 C :   -0.140709
   6 C :   -0.028549
   7 C :   -0.143666
   8 N :    0.200676
   9 C :   -0.120329
  10 C :   -0.142251
  11 C :   -0.123623
  12 C :   -0.115049
  13 H :    0.145505
  14 H :    0.193001
  15 H :    0.147370
  16 H :    0.154550
  17 H :    0.141995
  18 H :    0.143953
  19 H :    0.143565
  20 S :    0.738529
  21 C :   -0.471186
  22 N :    0.040825
  23 N :    0.042084
  24 C :   -0.385412
  25 C :   -0.457181
  26 N :    0.039651
  27 N :    0.045640
  28 C :   -0.378427
  29 S :    0.732728
  30 C :   -0.216951
  31 C :   -0.129691
  32 C :   -0.225667
  33 C :   -0.145994
  34 C :   -0.267121
  35 C :   -0.166858
  36 O :    0.099634
  37 O :    0.103106
  38 O :    0.136009
  39 H :    0.193234
  40 H :    0.199418
  41 H :    0.195270
  42 H :    0.139194
  43 H :    0.145074
  44 H :    0.148042

  Mayer bond orders larger than 0.1
B(  0-C ,  1-C ) :   1.5343 B(  0-C ,  5-C ) :   1.3525 B(  0-C , 19-H ) :   0.9868
B(  1-C ,  2-C ) :   1.2737 B(  1-C , 16-H ) :   0.9340 B(  2-C ,  3-C ) :   1.3528
B(  2-C ,  6-C ) :   1.0797 B(  3-C ,  4-C ) :   1.3025 B(  3-C ,  8-N ) :   1.1155
B(  4-C ,  5-C ) :   1.4825 B(  4-C , 17-H ) :   0.9778 B(  5-C , 18-H ) :   0.9814
B(  6-C ,  7-C ) :   1.3241 B(  6-C , 12-C ) :   1.2463 B(  7-C ,  8-N ) :   1.1530
B(  7-C ,  9-C ) :   1.2884 B(  8-N , 14-H ) :   0.9128 B(  9-C , 10-C ) :   1.4674
B(  9-C , 43-H ) :   0.9733 B( 10-C , 11-C ) :   1.4166 B( 10-C , 15-H ) :   0.9811
B( 11-C , 12-C ) :   1.4077 B( 11-C , 13-H ) :   0.9608 B( 12-C , 28-C ) :   0.9488
B( 20-S , 21-C ) :   1.3089 B( 20-S , 24-C ) :   1.3082 B( 21-C , 22-N ) :   1.7012
B( 21-C , 25-C ) :   0.9548 B( 22-N , 23-N ) :   1.1429 B( 23-N , 24-C ) :   1.7196
B( 24-C , 31-C ) :   0.9443 B( 25-C , 26-N ) :   1.7154 B( 25-C , 29-S ) :   1.2975
B( 26-N , 27-N ) :   1.1125 B( 27-N , 28-C ) :   1.6506 B( 28-C , 29-S ) :   1.2864
B( 30-C , 31-C ) :   1.3000 B( 30-C , 35-C ) :   1.4303 B( 30-C , 38-O ) :   1.2276
B( 31-C , 32-C ) :   1.3144 B( 32-C , 33-C ) :   1.4164 B( 32-C , 37-O ) :   1.1022
B( 33-C , 34-C ) :   1.4431 B( 33-C , 44-H ) :   0.9412 B( 34-C , 35-C ) :   1.3683
B( 34-C , 36-O ) :   1.1271 B( 35-C , 42-H ) :   0.9086 B( 36-O , 41-H ) :   0.8751
B( 37-O , 40-H ) :   0.8666 B( 38-O , 39-H ) :   0.8731

Dispersion correction           -0.020237732
FINAL SINGLE POINT ENERGY     -2142.075635459993

DIPOLE MOMENT
-------------
                                X             Y             Z
Electronic contribution:    -10.50354       4.57711      -1.72955
Nuclear contribution   :      9.36906      -4.63008       1.84601
                        -----------------------------------------
Total Dipole Moment    :     -1.13448      -0.05297       0.11646
                        -----------------------------------------
Magnitude (a.u.)       :      1.14167
Magnitude (Debye)      :      2.90189

                             ****ORCA TERMINATED NORMALLY****
TOTAL RUN TIME: 0 days 0 hours 11 minutes 20 seconds 271 msec
