                         Program Version 4.0.0 -  RELEASE  -
|  1> #
|  2> !wB97X-D3 def2-TZVP def2/J RIJCOSX Grid5 FinalGrid6 TightSCF
|  3> %pal
|  4>  nprocs 24
|  5> end
|  6> %tddft
|  7>   Mode sTDDFT
|  8>   nroots 2
|  9>   Ethresh 10.0
| 10>   maxcore 5000
| 11>   triplets true
| 12> end
| 13> * xyz 0 1
| 14> C -4.29017033 0.54618119 2.59845148
| 15> C -3.57498049 0.17306097 1.46249196
| 16> C -4.27514029 -0.13376968 0.28153672
| 17> C -5.69800001 -0.09631846 0.30768526
| 18> C -6.42102019 0.28385744 1.44857780
| 19> C -5.69442755 0.61217974 2.59091773
| 20> C -3.89718596 -0.58013161 -1.04983657
| 21> C -5.11629794 -0.82949131 -1.74339668
| 22> N -6.18228630 -0.50801799 -0.92167686
| 23> C -5.15939914 -1.34554574 -3.04768641
| 24> C -3.94104627 -1.62905383 -3.66146621
| 25> C -2.72584120 -1.37306477 -3.01084462
| 26> C -2.66810737 -0.82593854 -1.71529028
| 27> H -1.79553298 -1.57313786 -3.53578738
| 28> H -7.16006856 -0.60689589 -1.16556190
| 29> H -3.92826710 -2.03977271 -4.66730830
| 30> H -2.49174128 0.10796994 1.50673015
| 31> H -7.50744352 0.31055657 1.44335573
| 32> H -6.22037606 0.90943337 3.49425798
| 33> H -3.75377044 0.78564485 3.51259412
| 34> N 3.10047963 0.83717036 0.41423441
| 35> C 1.79600201 1.30366964 0.34270578
| 36> C 1.59393397 2.56735291 0.87841877
| 37> S 3.08973312 3.21207562 1.50194914
| 38> C 3.91010488 1.70794173 0.99123454
| 39> C 0.76128945 0.47597714 -0.26348765
| 40> S -0.93154289 1.01816379 -0.39024304
| 41> C -1.34189783 -0.51508449 -1.15816929
| 42> C -0.19424592 -1.27738736 -1.27557193
| 43> N 0.96027729 -0.73189649 -0.76440305
| 44> H 0.66015770 3.11365957 0.92493851
| 45> H -0.16967249 -2.27396424 -1.71229673
| 46> C 7.75986943 1.78816377 1.87154547
| 47> S 6.30773740 2.73035817 1.98546232
| 48> C 5.32192169 1.51172537 1.21056639
| 49> C 6.11784970 0.39933710 0.87482522
| 50> C 7.50358367 0.56473255 1.25431853
| 51> N 5.67261680 -0.74462638 0.25271098
| 52> C 6.59558367 -1.66692992 0.03206433
| 53> C 7.97496590 -1.50477545 0.40862598
| 54> N 8.44091528 -0.42183714 1.00727489
| 55> H 6.27878986 -2.59349719 -0.46216383
| 56> H 8.68780953 -2.31148173 0.19488926
| 57> H -6.10418051 -1.52672715 -3.55219713
| 58> H 8.70902165 2.15033418 2.24562442
| 59> *
| 60> $new_job
| 61> #
| 62> !wB97X-D3 def2-TZVP def2/J RIJCOSX Grid5 FinalGrid6 TightSCF
| 63> %pal
| 64>  nprocs 24
| 65> end
| 66> %elprop
| 67>    dipole     true
| 68>    quadrupole true
| 69> end
| 70> %tddft
| 71>   Mode sTDDFT
| 72>   nroots 2
| 73>   Ethresh 10.0
| 74>   maxcore 5000
| 75> end
| 76> * xyz 0 1
| 77> C -4.29017033 0.54618119 2.59845148
| 78> C -3.57498049 0.17306097 1.46249196
| 79> C -4.27514029 -0.13376968 0.28153672
| 80> C -5.69800001 -0.09631846 0.30768526
| 81> C -6.42102019 0.28385744 1.44857780
| 82> C -5.69442755 0.61217974 2.59091773
| 83> C -3.89718596 -0.58013161 -1.04983657
| 84> C -5.11629794 -0.82949131 -1.74339668
| 85> N -6.18228630 -0.50801799 -0.92167686
| 86> C -5.15939914 -1.34554574 -3.04768641
| 87> C -3.94104627 -1.62905383 -3.66146621
| 88> C -2.72584120 -1.37306477 -3.01084462
| 89> C -2.66810737 -0.82593854 -1.71529028
| 90> H -1.79553298 -1.57313786 -3.53578738
| 91> H -7.16006856 -0.60689589 -1.16556190
| 92> H -3.92826710 -2.03977271 -4.66730830
| 93> H -2.49174128 0.10796994 1.50673015
| 94> H -7.50744352 0.31055657 1.44335573
| 95> H -6.22037606 0.90943337 3.49425798
| 96> H -3.75377044 0.78564485 3.51259412
| 97> N 3.10047963 0.83717036 0.41423441
| 98> C 1.79600201 1.30366964 0.34270578
| 99> C 1.59393397 2.56735291 0.87841877
|100> S 3.08973312 3.21207562 1.50194914
|101> C 3.91010488 1.70794173 0.99123454
|102> C 0.76128945 0.47597714 -0.26348765
|103> S -0.93154289 1.01816379 -0.39024304
|104> C -1.34189783 -0.51508449 -1.15816929
|105> C -0.19424592 -1.27738736 -1.27557193
|106> N 0.96027729 -0.73189649 -0.76440305
|107> H 0.66015770 3.11365957 0.92493851
|108> H -0.16967249 -2.27396424 -1.71229673
|109> C 7.75986943 1.78816377 1.87154547
|110> S 6.30773740 2.73035817 1.98546232
|111> C 5.32192169 1.51172537 1.21056639
|112> C 6.11784970 0.39933710 0.87482522
|113> C 7.50358367 0.56473255 1.25431853
|114> N 5.67261680 -0.74462638 0.25271098
|115> C 6.59558367 -1.66692992 0.03206433
|116> C 7.97496590 -1.50477545 0.40862598
|117> N 8.44091528 -0.42183714 1.00727489
|118> H 6.27878986 -2.59349719 -0.46216383
|119> H 8.68780953 -2.31148173 0.19488926
|120> H -6.10418051 -1.52672715 -3.55219713
|121> H 8.70902165 2.15033418 2.24562442
|122> *
|123>
|124>                          ****END OF INPUT****
 Total Charge           Charge          ....    0
 Multiplicity           Mult            ....    1
 Number of Electrons    NEL             ....  240
Dispersion correction           -0.020898256
FINAL SINGLE POINT ENERGY     -2390.796211152300

CARTESIAN COORDINATES (ANGSTROEM)
---------------------------------
  C     -4.290170    0.546181    2.598451
  C     -3.574980    0.173061    1.462492
  C     -4.275140   -0.133770    0.281537
  C     -5.698000   -0.096318    0.307685
  C     -6.421020    0.283857    1.448578
  C     -5.694428    0.612180    2.590918
  C     -3.897186   -0.580132   -1.049837
  C     -5.116298   -0.829491   -1.743397
  N     -6.182286   -0.508018   -0.921677
  C     -5.159399   -1.345546   -3.047686
  C     -3.941046   -1.629054   -3.661466
  C     -2.725841   -1.373065   -3.010845
  C     -2.668107   -0.825939   -1.715290
  H     -1.795533   -1.573138   -3.535787
  H     -7.160069   -0.606896   -1.165562
  H     -3.928267   -2.039773   -4.667308
  H     -2.491741    0.107970    1.506730
  H     -7.507444    0.310557    1.443356
  H     -6.220376    0.909433    3.494258
  H     -3.753770    0.785645    3.512594
  N      3.100480    0.837170    0.414234
  C      1.796002    1.303670    0.342706
  C      1.593934    2.567353    0.878419
  S      3.089733    3.212076    1.501949
  C      3.910105    1.707942    0.991235
  C      0.761289    0.475977   -0.263488
  S     -0.931543    1.018164   -0.390243
  C     -1.341898   -0.515084   -1.158169
  C     -0.194246   -1.277387   -1.275572
  N      0.960277   -0.731896   -0.764403
  H      0.660158    3.113660    0.924939
  H     -0.169672   -2.273964   -1.712297
  C      7.759869    1.788164    1.871545
  S      6.307737    2.730358    1.985462
  C      5.321922    1.511725    1.210566
  C      6.117850    0.399337    0.874825
  C      7.503584    0.564733    1.254319
  N      5.672617   -0.744626    0.252711
  C      6.595584   -1.666930    0.032064
  C      7.974966   -1.504775    0.408626
  N      8.440915   -0.421837    1.007275
  H      6.278790   -2.593497   -0.462164
  H      8.687810   -2.311482    0.194889
  H     -6.104181   -1.526727   -3.552197
  H      8.709022    2.150334    2.245624

 Multiplicity           Mult            ....    1
 Number of Electrons    NEL             ....  240
 Basis Dimension        Dim             .... 1088

ORBITAL ENERGIES
----------------

  NO   OCC          E(Eh)            E(eV)
   0   2.0000     -89.014840     -2422.2169
   1   2.0000     -88.997069     -2421.7334
   2   2.0000     -88.986192     -2421.4374
   3   2.0000     -14.469331      -393.7305
   4   2.0000     -14.452903      -393.2835
   5   2.0000     -14.447091      -393.1253
   6   2.0000     -14.431592      -392.7036
   7   2.0000     -14.424488      -392.5103
   8   2.0000     -10.372908      -282.2612
   9   2.0000     -10.357624      -281.8453
  10   2.0000     -10.343652      -281.4651
  11   2.0000     -10.340632      -281.3829
  12   2.0000     -10.339042      -281.3396
  13   2.0000     -10.338603      -281.3277
  14   2.0000     -10.338525      -281.3256
  15   2.0000     -10.337288      -281.2919
  16   2.0000     -10.334428      -281.2141
  17   2.0000     -10.330153      -281.0977
  18   2.0000     -10.328914      -281.0640
  19   2.0000     -10.327051      -281.0134
  20   2.0000     -10.326138      -280.9885
  21   2.0000     -10.312019      -280.6043
  22   2.0000     -10.311552      -280.5916
  23   2.0000     -10.296544      -280.1832
  24   2.0000     -10.291263      -280.0395
  25   2.0000     -10.291061      -280.0340
  26   2.0000     -10.289482      -279.9910
  27   2.0000     -10.287427      -279.9351
  28   2.0000     -10.285843      -279.8920
  29   2.0000     -10.285030      -279.8699
  30   2.0000     -10.283141      -279.8185
  31   2.0000     -10.276158      -279.6285
  32   2.0000      -8.110255      -220.6913
  33   2.0000      -8.093576      -220.2374
  34   2.0000      -8.082949      -219.9482
  35   2.0000      -6.063178      -164.9875
  36   2.0000      -6.059088      -164.8762
  37   2.0000      -6.058231      -164.8529
  38   2.0000      -6.046769      -164.5409
  39   2.0000      -6.042704      -164.4303
  40   2.0000      -6.040696      -164.3757
  41   2.0000      -6.035984      -164.2475
  42   2.0000      -6.032138      -164.1428
  43   2.0000      -6.030103      -164.0874
  44   2.0000      -1.106056       -30.0973
  45   2.0000      -1.103742       -30.0343
  46   2.0000      -1.089028       -29.6340
  47   2.0000      -1.068099       -29.0645
  48   2.0000      -1.030980       -28.0544
  49   2.0000      -1.008309       -27.4375
  50   2.0000      -0.977982       -26.6122
  51   2.0000      -0.966684       -26.3048
  52   2.0000      -0.922442       -25.1009
  53   2.0000      -0.918651       -24.9978
  54   2.0000      -0.912671       -24.8350
  55   2.0000      -0.898538       -24.4505
  56   2.0000      -0.881689       -23.9920
  57   2.0000      -0.877841       -23.8873
  58   2.0000      -0.862775       -23.4773
  59   2.0000      -0.845134       -22.9973
  60   2.0000      -0.839526       -22.8447
  61   2.0000      -0.817549       -22.2466
  62   2.0000      -0.786351       -21.3977
  63   2.0000      -0.766837       -20.8667
  64   2.0000      -0.754172       -20.5221
  65   2.0000      -0.734450       -19.9854
  66   2.0000      -0.724366       -19.7110
  67   2.0000      -0.721697       -19.6384
  68   2.0000      -0.714030       -19.4297
  69   2.0000      -0.696453       -18.9515
  70   2.0000      -0.672198       -18.2914
  71   2.0000      -0.661587       -18.0027
  72   2.0000      -0.645853       -17.5746
  73   2.0000      -0.639773       -17.4091
  74   2.0000      -0.635446       -17.2914
  75   2.0000      -0.623254       -16.9596
  76   2.0000      -0.613357       -16.6903
  77   2.0000      -0.608671       -16.5628
  78   2.0000      -0.602506       -16.3950
  79   2.0000      -0.582824       -15.8595
  80   2.0000      -0.563652       -15.3378
  81   2.0000      -0.558116       -15.1871
  82   2.0000      -0.557789       -15.1782
  83   2.0000      -0.557494       -15.1702
  84   2.0000      -0.547745       -14.9049
  85   2.0000      -0.543109       -14.7787
  86   2.0000      -0.538985       -14.6665
  87   2.0000      -0.533756       -14.5242
  88   2.0000      -0.530882       -14.4460
  89   2.0000      -0.530281       -14.4297
  90   2.0000      -0.522222       -14.2104
  91   2.0000      -0.519857       -14.1460
  92   2.0000      -0.508766       -13.8442
  93   2.0000      -0.504719       -13.7341
  94   2.0000      -0.497356       -13.5337
  95   2.0000      -0.480456       -13.0739
  96   2.0000      -0.473468       -12.8837
  97   2.0000      -0.470925       -12.8145
  98   2.0000      -0.466565       -12.6959
  99   2.0000      -0.465207       -12.6589
 100   2.0000      -0.458401       -12.4737
 101   2.0000      -0.451402       -12.2833
 102   2.0000      -0.444533       -12.0964
 103   2.0000      -0.443348       -12.0641
 104   2.0000      -0.438831       -11.9412
 105   2.0000      -0.434040       -11.8108
 106   2.0000      -0.421190       -11.4612
 107   2.0000      -0.394212       -10.7270
 108   2.0000      -0.385817       -10.4986
 109   2.0000      -0.381389       -10.3781
 110   2.0000      -0.377495       -10.2722
 111   2.0000      -0.369219       -10.0470
 112   2.0000      -0.359973        -9.7954
 113   2.0000      -0.353789        -9.6271
 114   2.0000      -0.348064        -9.4713
 115   2.0000      -0.342456        -9.3187
 116   2.0000      -0.321749        -8.7552
 117   2.0000      -0.299868        -8.1598
 118   2.0000      -0.293711        -7.9923
 119   2.0000      -0.278731        -7.5847
 120   0.0000      -0.042651        -1.1606
 121   0.0000      -0.003875        -0.1054
 122   0.0000       0.023490         0.6392
 123   0.0000       0.036910         1.0044
 124   0.0000       0.053050         1.4436

MULLIKEN ATOMIC CHARGES
-----------------------
   0 C :   -0.176083
   1 C :   -0.131463
   2 C :   -0.024723
   3 C :    0.176289
   4 C :   -0.242264
   5 C :   -0.079343
   6 C :   -0.046665
   7 C :    0.186408
   8 N :   -0.302589
   9 C :   -0.241311
  10 C :   -0.071385
  11 C :   -0.296739
  12 C :    0.200158
  13 H :    0.140625
  14 H :    0.236618
  15 H :    0.123885
  16 H :    0.145826
  17 H :    0.114338
  18 H :    0.123144
  19 H :    0.118691
  20 N :   -0.216319
  21 C :    0.075268
  22 C :   -0.219356
  23 S :    0.044210
  24 C :    0.263376
  25 C :    0.126273
  26 S :   -0.006063
  27 C :    0.011729
  28 C :   -0.124855
  29 N :   -0.241809
  30 H :    0.173938
  31 H :    0.157542
  32 C :   -0.219051
  33 S :    0.112794
  34 C :   -0.077259
  35 C :    0.013667
  36 C :    0.085315
  37 N :   -0.217881
  38 C :   -0.035840
  39 C :    0.005889
  40 N :   -0.245558
  41 H :    0.142757
  42 H :    0.140924
  43 H :    0.117233
  44 H :    0.179658
Sum of atomic charges:   -0.0000000

LOEWDIN ATOMIC CHARGES
----------------------
   0 C :   -0.159478
   1 C :   -0.112731
   2 C :   -0.084249
   3 C :   -0.145079
   4 C :   -0.133302
   5 C :   -0.141876
   6 C :   -0.047432
   7 C :   -0.143954
   8 N :    0.200638
   9 C :   -0.128728
  10 C :   -0.140688
  11 C :   -0.114821
  12 C :   -0.108889
  13 H :    0.151147
  14 H :    0.193115
  15 H :    0.146663
  16 H :    0.142130
  17 H :    0.143053
  18 H :    0.144703
  19 H :    0.143761
  20 N :    0.177484
  21 C :   -0.278769
  22 C :   -0.364809
  23 S :    0.678656
  24 C :   -0.413457
  25 C :   -0.385174
  26 S :    0.728655
  27 C :   -0.320965
  28 C :   -0.225473
  29 N :    0.131759
  30 H :    0.132802
  31 H :    0.144172
  32 C :   -0.337205
  33 S :    0.770355
  34 C :   -0.336072
  35 C :   -0.190225
  36 C :   -0.242719
  37 N :    0.189981
  38 C :   -0.193324
  39 C :   -0.199001
  40 N :    0.161260
  41 H :    0.144434
  42 H :    0.142535
  43 H :    0.143894
  44 H :    0.137226

  Mayer bond orders larger than 0.1
B(  0-C ,  1-C ) :   1.5244 B(  0-C ,  5-C ) :   1.3633 B(  0-C , 19-H ) :   0.9843
B(  1-C ,  2-C ) :   1.2673 B(  1-C , 16-H ) :   0.9356 B(  2-C ,  3-C ) :   1.3787
B(  2-C ,  6-C ) :   1.0769 B(  3-C ,  4-C ) :   1.3080 B(  3-C ,  8-N ) :   1.1203
B(  4-C ,  5-C ) :   1.4810 B(  4-C , 17-H ) :   0.9765 B(  5-C , 18-H ) :   0.9806
B(  6-C ,  7-C ) :   1.3351 B(  6-C , 12-C ) :   1.2055 B(  7-C ,  8-N ) :   1.1492
B(  7-C ,  9-C ) :   1.2841 B(  8-N , 14-H ) :   0.9134 B(  9-C , 10-C ) :   1.4682
B(  9-C , 43-H ) :   0.9752 B( 10-C , 11-C ) :   1.3929 B( 10-C , 15-H ) :   0.9819
B( 11-C , 12-C ) :   1.4545 B( 11-C , 13-H ) :   0.9608 B( 12-C , 27-C ) :   0.8052
B( 20-N , 21-C ) :   1.2745 B( 20-N , 24-C ) :   1.6776 B( 21-C , 22-C ) :   1.6430
B( 21-C , 25-C ) :   1.0000 B( 22-C , 23-S ) :   1.2653 B( 22-C , 30-H ) :   0.9297
B( 23-S , 24-C ) :   1.2307 B( 24-C , 34-C ) :   0.9378 B( 25-C , 26-S ) :   1.2947
B( 25-C , 29-N ) :   1.6316 B( 26-S , 27-C ) :   1.2041 B( 26-S , 28-C ) :   0.1002
B( 27-C , 28-C ) :   1.6163 B( 28-C , 29-N ) :   1.3213 B( 28-C , 31-H ) :   0.9644
B( 32-C , 33-S ) :   1.3373 B( 32-C , 36-C ) :   1.5406 B( 32-C , 44-H ) :   0.9187
B( 33-S , 34-C ) :   1.3418 B( 34-C , 35-C ) :   1.3712 B( 35-C , 36-C ) :   1.2201
B( 35-C , 37-N ) :   1.2802 B( 36-C , 40-N ) :   1.2474 B( 37-N , 38-C ) :   1.7062
B( 38-C , 39-C ) :   1.1540 B( 38-C , 41-H ) :   0.9672 B( 39-C , 40-N ) :   1.6824
B( 39-C , 42-H ) :   0.9624

Dispersion correction           -0.020898256
FINAL SINGLE POINT ENERGY     -2390.796211154315

DIPOLE MOMENT
-------------
                                X             Y             Z
Electronic contribution:     22.28375      10.80710       4.09237
Nuclear contribution   :    -23.31225     -10.54064      -4.16382
                        -----------------------------------------
Total Dipole Moment    :     -1.02850       0.26645      -0.07146
                        -----------------------------------------
Magnitude (a.u.)       :      1.06485
Magnitude (Debye)      :      2.70664

                             ****ORCA TERMINATED NORMALLY****
TOTAL RUN TIME: 0 days 0 hours 9 minutes 0 seconds 383 msec
