                         Program Version 4.0.0 -  RELEASE  -
|  1> #
|  2> !wB97X-D3 def2-TZVP def2/J RIJCOSX Grid5 FinalGrid6 TightSCF
|  3> %pal
|  4>  nprocs 24
|  5> end
|  6> %tddft
|  7>   Mode sTDDFT
|  8>   nroots 2
|  9>   Ethresh 10.0
| 10>   maxcore 5000
| 11>   triplets true
| 12> end
| 13> * xyz 0 1
| 14> C -8.47547904 -0.08860796 -1.76859627
| 15> C -7.13780692 0.18965195 -1.63123465
| 16> C -6.50766929 0.09459683 -0.34863262
| 17> C -7.29756424 -0.30699537 0.78995216
| 18> C -8.69004105 -0.58725271 0.60168098
| 19> C -9.25691868 -0.47799635 -0.64401347
| 20> N -5.18744854 0.38015905 -0.22567604
| 21> C -4.63397738 0.28293724 1.00546728
| 22> C -5.42243448 -0.15187139 2.13944970
| 23> N -6.74282854 -0.43650083 2.01958719
| 24> C -4.79323918 -0.29184919 3.41774268
| 25> C -3.45403416 -0.02105709 3.55800963
| 26> C -2.67800230 0.41360642 2.45340687
| 27> C -3.22862310 0.58474312 1.19276087
| 28> H -1.62698046 0.63968081 2.61402140
| 29> H -2.97347643 -0.12808028 4.52719472
| 30> H -5.38939183 -0.61436840 4.26706549
| 31> H -10.31376862 -0.69085094 -0.78399583
| 32> H -6.54217299 0.48864777 -2.49030546
| 33> H -8.95227546 -0.01307321 -2.74260481
| 34> S 1.61626145 2.09599306 -2.93913087
| 35> C 1.03492585 1.32492108 -1.46819377
| 36> C 2.07307128 0.70752031 -0.80039906
| 37> C 3.34445625 0.84248306 -1.45489751
| 38> C 3.25140221 1.57313017 -2.63029473
| 39> C -0.36074026 1.38454686 -1.09108100
| 40> C -0.96874533 0.83227733 0.01838064
| 41> C -2.38447899 1.06718084 0.08137537
| 42> C -2.83516657 1.81591315 -0.99185502
| 43> S -1.54048301 2.23374512 -2.08196452
| 44> H -0.42503513 0.24995784 0.75476348
| 45> H 1.93903035 0.16957983 0.13290388
| 46> H -3.84814578 2.15386445 -1.16543436
| 47> H 4.06101869 1.81568774 -3.30643497
| 48> S 4.61211087 -0.64525469 0.57411533
| 49> C 6.32953921 -0.90200889 0.41644380
| 50> C 6.83650236 -0.30930648 -0.73514241
| 51> C 5.85102774 0.35900554 -1.50585083
| 52> C 4.58356862 0.27756366 -0.94165432
| 53> C 7.40906559 -1.54942517 1.12087732
| 54> C 8.58747371 -1.36057515 0.40940567
| 55> C 8.32406598 -0.55171765 -0.83860700
| 56> C 9.71752985 -1.96663142 1.02840254
| 57> C 9.38548091 -2.60789086 2.20100479
| 58> S 7.67121974 -2.48058253 2.57138367
| 59> H 10.72762441 -1.93545718 0.63456897
| 60> H 6.04853011 0.88116612 -2.43604776
| 61> H 8.89738693 0.38403417 -0.85826789
| 62> H 8.59401792 -1.09543696 -1.75304664
| 63> H -9.28807116 -0.88644905 1.45882534
| 64> H 10.05938890 -3.14325377 2.85757203
| 65> *
| 66> $new_job
| 67> #
| 68> !wB97X-D3 def2-TZVP def2/J RIJCOSX Grid5 FinalGrid6 TightSCF
| 69> %pal
| 70>  nprocs 24
| 71> end
| 72> %elprop
| 73>    dipole     true
| 74>    quadrupole true
| 75> end
| 76> %tddft
| 77>   Mode sTDDFT
| 78>   nroots 2
| 79>   Ethresh 10.0
| 80>   maxcore 5000
| 81> end
| 82> * xyz 0 1
| 83> C -8.47547904 -0.08860796 -1.76859627
| 84> C -7.13780692 0.18965195 -1.63123465
| 85> C -6.50766929 0.09459683 -0.34863262
| 86> C -7.29756424 -0.30699537 0.78995216
| 87> C -8.69004105 -0.58725271 0.60168098
| 88> C -9.25691868 -0.47799635 -0.64401347
| 89> N -5.18744854 0.38015905 -0.22567604
| 90> C -4.63397738 0.28293724 1.00546728
| 91> C -5.42243448 -0.15187139 2.13944970
| 92> N -6.74282854 -0.43650083 2.01958719
| 93> C -4.79323918 -0.29184919 3.41774268
| 94> C -3.45403416 -0.02105709 3.55800963
| 95> C -2.67800230 0.41360642 2.45340687
| 96> C -3.22862310 0.58474312 1.19276087
| 97> H -1.62698046 0.63968081 2.61402140
| 98> H -2.97347643 -0.12808028 4.52719472
| 99> H -5.38939183 -0.61436840 4.26706549
|100> H -10.31376862 -0.69085094 -0.78399583
|101> H -6.54217299 0.48864777 -2.49030546
|102> H -8.95227546 -0.01307321 -2.74260481
|103> S 1.61626145 2.09599306 -2.93913087
|104> C 1.03492585 1.32492108 -1.46819377
|105> C 2.07307128 0.70752031 -0.80039906
|106> C 3.34445625 0.84248306 -1.45489751
|107> C 3.25140221 1.57313017 -2.63029473
|108> C -0.36074026 1.38454686 -1.09108100
|109> C -0.96874533 0.83227733 0.01838064
|110> C -2.38447899 1.06718084 0.08137537
|111> C -2.83516657 1.81591315 -0.99185502
|112> S -1.54048301 2.23374512 -2.08196452
|113> H -0.42503513 0.24995784 0.75476348
|114> H 1.93903035 0.16957983 0.13290388
|115> H -3.84814578 2.15386445 -1.16543436
|116> H 4.06101869 1.81568774 -3.30643497
|117> S 4.61211087 -0.64525469 0.57411533
|118> C 6.32953921 -0.90200889 0.41644380
|119> C 6.83650236 -0.30930648 -0.73514241
|120> C 5.85102774 0.35900554 -1.50585083
|121> C 4.58356862 0.27756366 -0.94165432
|122> C 7.40906559 -1.54942517 1.12087732
|123> C 8.58747371 -1.36057515 0.40940567
|124> C 8.32406598 -0.55171765 -0.83860700
|125> C 9.71752985 -1.96663142 1.02840254
|126> C 9.38548091 -2.60789086 2.20100479
|127> S 7.67121974 -2.48058253 2.57138367
|128> H 10.72762441 -1.93545718 0.63456897
|129> H 6.04853011 0.88116612 -2.43604776
|130> H 8.89738693 0.38403417 -0.85826789
|131> H 8.59401792 -1.09543696 -1.75304664
|132> H -9.28807116 -0.88644905 1.45882534
|133> H 10.05938890 -3.14325377 2.85757203
|134> *
|135>
|136>                          ****END OF INPUT****
 Total Charge           Charge          ....    0
 Multiplicity           Mult            ....    1
 Number of Electrons    NEL             ....  268
Dispersion correction           -0.023672767
FINAL SINGLE POINT ENERGY     -2817.070327619406

CARTESIAN COORDINATES (ANGSTROEM)
---------------------------------
  C     -8.475479   -0.088608   -1.768596
  C     -7.137807    0.189652   -1.631235
  C     -6.507669    0.094597   -0.348633
  C     -7.297564   -0.306995    0.789952
  C     -8.690041   -0.587253    0.601681
  C     -9.256919   -0.477996   -0.644013
  N     -5.187449    0.380159   -0.225676
  C     -4.633977    0.282937    1.005467
  C     -5.422434   -0.151871    2.139450
  N     -6.742829   -0.436501    2.019587
  C     -4.793239   -0.291849    3.417743
  C     -3.454034   -0.021057    3.558010
  C     -2.678002    0.413606    2.453407
  C     -3.228623    0.584743    1.192761
  H     -1.626980    0.639681    2.614021
  H     -2.973476   -0.128080    4.527195
  H     -5.389392   -0.614368    4.267065
  H    -10.313769   -0.690851   -0.783996
  H     -6.542173    0.488648   -2.490305
  H     -8.952275   -0.013073   -2.742605
  S      1.616261    2.095993   -2.939131
  C      1.034926    1.324921   -1.468194
  C      2.073071    0.707520   -0.800399
  C      3.344456    0.842483   -1.454898
  C      3.251402    1.573130   -2.630295
  C     -0.360740    1.384547   -1.091081
  C     -0.968745    0.832277    0.018381
  C     -2.384479    1.067181    0.081375
  C     -2.835167    1.815913   -0.991855
  S     -1.540483    2.233745   -2.081965
  H     -0.425035    0.249958    0.754763
  H      1.939030    0.169580    0.132904
  H     -3.848146    2.153864   -1.165434
  H      4.061019    1.815688   -3.306435
  S      4.612111   -0.645255    0.574115
  C      6.329539   -0.902009    0.416444
  C      6.836502   -0.309306   -0.735142
  C      5.851028    0.359006   -1.505851
  C      4.583569    0.277564   -0.941654
  C      7.409066   -1.549425    1.120877
  C      8.587474   -1.360575    0.409406
  C      8.324066   -0.551718   -0.838607
  C      9.717530   -1.966631    1.028403
  C      9.385481   -2.607891    2.201005
  S      7.671220   -2.480583    2.571384
  H     10.727624   -1.935457    0.634569
  H      6.048530    0.881166   -2.436048
  H      8.897387    0.384034   -0.858268
  H      8.594018   -1.095437   -1.753047
  H     -9.288071   -0.886449    1.458825
  H     10.059389   -3.143254    2.857572

 Multiplicity           Mult            ....    1
 Number of Electrons    NEL             ....  268
 Basis Dimension        Dim             .... 1205

ORBITAL ENERGIES
----------------

  NO   OCC          E(Eh)            E(eV)
   0   2.0000     -88.986573     -2421.4477
   1   2.0000     -88.985746     -2421.4253
   2   2.0000     -88.985160     -2421.4093
   3   2.0000     -88.982459     -2421.3358
   4   2.0000     -14.446017      -393.0961
   5   2.0000     -14.445784      -393.0898
   6   2.0000     -10.341373      -281.4031
   7   2.0000     -10.338655      -281.3291
   8   2.0000     -10.338442      -281.3233
   9   2.0000     -10.337645      -281.3016
  10   2.0000     -10.332899      -281.1725
  11   2.0000     -10.329165      -281.0709
  12   2.0000     -10.327207      -281.0176
  13   2.0000     -10.322961      -280.9021
  14   2.0000     -10.321907      -280.8734
  15   2.0000     -10.315767      -280.7063
  16   2.0000     -10.315096      -280.6880
  17   2.0000     -10.313551      -280.6460
  18   2.0000     -10.312070      -280.6057
  19   2.0000     -10.310363      -280.5592
  20   2.0000     -10.302956      -280.3577
  21   2.0000     -10.302558      -280.3469
  22   2.0000     -10.302065      -280.3334
  23   2.0000     -10.302033      -280.3326
  24   2.0000     -10.301338      -280.3136
  25   2.0000     -10.300648      -280.2949
  26   2.0000     -10.298760      -280.2435
  27   2.0000     -10.298238      -280.2293
  28   2.0000     -10.295716      -280.1607
  29   2.0000     -10.295676      -280.1596
  30   2.0000     -10.293739      -280.1069
  31   2.0000     -10.293723      -280.1064
  32   2.0000     -10.293304      -280.0950
  33   2.0000     -10.292499      -280.0731
  34   2.0000     -10.292340      -280.0688
  35   2.0000      -8.082519      -219.9365
  36   2.0000      -8.082014      -219.9228
  37   2.0000      -8.080943      -219.8936
  38   2.0000      -8.078926      -219.8388
  39   2.0000      -6.035825      -164.2432
  40   2.0000      -6.035359      -164.2305
  41   2.0000      -6.034358      -164.2032
  42   2.0000      -6.032225      -164.1452
  43   2.0000      -6.031913      -164.1367
  44   2.0000      -6.031131      -164.1154
  45   2.0000      -6.030157      -164.0889
  46   2.0000      -6.029442      -164.0695
  47   2.0000      -6.029107      -164.0603
  48   2.0000      -6.027980      -164.0297
  49   2.0000      -6.027967      -164.0293
  50   2.0000      -6.026084      -163.9781
  51   2.0000      -1.101053       -29.9612
  52   2.0000      -1.031273       -28.0624
  53   2.0000      -1.030829       -28.0503
  54   2.0000      -1.016798       -27.6685
  55   2.0000      -1.000753       -27.2319
  56   2.0000      -0.989774       -26.9331
  57   2.0000      -0.982555       -26.7367
  58   2.0000      -0.961530       -26.1646
  59   2.0000      -0.930479       -25.3196
  60   2.0000      -0.906915       -24.6784
  61   2.0000      -0.886576       -24.1249
  62   2.0000      -0.880904       -23.9706
  63   2.0000      -0.873209       -23.7612
  64   2.0000      -0.869895       -23.6711
  65   2.0000      -0.861915       -23.4539
  66   2.0000      -0.847732       -23.0680
  67   2.0000      -0.837084       -22.7782
  68   2.0000      -0.821592       -22.3567
  69   2.0000      -0.801511       -21.8102
  70   2.0000      -0.796125       -21.6637
  71   2.0000      -0.789045       -21.4710
  72   2.0000      -0.762899       -20.7595
  73   2.0000      -0.733850       -19.9691
  74   2.0000      -0.722566       -19.6620
  75   2.0000      -0.715346       -19.4656
  76   2.0000      -0.712481       -19.3876
  77   2.0000      -0.678063       -18.4510
  78   2.0000      -0.670878       -18.2555
  79   2.0000      -0.665599       -18.1119
  80   2.0000      -0.663438       -18.0531
  81   2.0000      -0.653710       -17.7884
  82   2.0000      -0.641100       -17.4452
  83   2.0000      -0.637384       -17.3441
  84   2.0000      -0.627822       -17.0839
  85   2.0000      -0.603476       -16.4214
  86   2.0000      -0.602311       -16.3897
  87   2.0000      -0.595783       -16.2121
  88   2.0000      -0.587415       -15.9844
  89   2.0000      -0.584470       -15.9042
  90   2.0000      -0.574844       -15.6423
  91   2.0000      -0.569826       -15.5058
  92   2.0000      -0.562378       -15.3031
  93   2.0000      -0.554188       -15.0802
  94   2.0000      -0.544833       -14.8256
  95   2.0000      -0.541407       -14.7324
  96   2.0000      -0.537044       -14.6137
  97   2.0000      -0.523379       -14.2419
  98   2.0000      -0.518605       -14.1120
  99   2.0000      -0.516725       -14.0608
 100   2.0000      -0.507238       -13.8027
 101   2.0000      -0.502295       -13.6681
 102   2.0000      -0.497313       -13.5326
 103   2.0000      -0.492440       -13.4000
 104   2.0000      -0.487994       -13.2790
 105   2.0000      -0.485802       -13.2193
 106   2.0000      -0.482083       -13.1181
 107   2.0000      -0.479111       -13.0373
 108   2.0000      -0.475603       -12.9418
 109   2.0000      -0.473656       -12.8888
 110   2.0000      -0.467194       -12.7130
 111   2.0000      -0.466760       -12.7012
 112   2.0000      -0.465738       -12.6734
 113   2.0000      -0.457995       -12.4627
 114   2.0000      -0.455903       -12.4057
 115   2.0000      -0.450190       -12.2503
 116   2.0000      -0.446933       -12.1617
 117   2.0000      -0.437788       -11.9128
 118   2.0000      -0.433108       -11.7855
 119   2.0000      -0.430956       -11.7269
 120   2.0000      -0.426532       -11.6065
 121   2.0000      -0.414378       -11.2758
 122   2.0000      -0.396859       -10.7991
 123   2.0000      -0.377386       -10.2692
 124   2.0000      -0.365180        -9.9371
 125   2.0000      -0.349404        -9.5078
 126   2.0000      -0.345804        -9.4098
 127   2.0000      -0.341451        -9.2913
 128   2.0000      -0.339606        -9.2411
 129   2.0000      -0.337719        -9.1898
 130   2.0000      -0.335827        -9.1383
 131   2.0000      -0.305812        -8.3216
 132   2.0000      -0.286719        -7.8020
 133   2.0000      -0.262410        -7.1405
 134   0.0000      -0.042308        -1.1512
 135   0.0000       0.001811         0.0493
 136   0.0000       0.013622         0.3707
 137   0.0000       0.030510         0.8302
 138   0.0000       0.043452         1.1824

MULLIKEN ATOMIC CHARGES
-----------------------
   0 C :   -0.067943
   1 C :   -0.285973
   2 C :    0.210274
   3 C :    0.194088
   4 C :   -0.261194
   5 C :   -0.067775
   6 N :   -0.314955
   7 C :    0.186374
   8 C :    0.182413
   9 N :   -0.244179
  10 C :   -0.258926
  11 C :   -0.082007
  12 C :   -0.163626
  13 C :   -0.006798
  14 H :    0.135731
  15 H :    0.129683
  16 H :    0.129556
  17 H :    0.133223
  18 H :    0.135882
  19 H :    0.133909
  20 S :    0.063983
  21 C :    0.061533
  22 C :   -0.287378
  23 C :    0.117087
  24 C :   -0.250258
  25 C :    0.042428
  26 C :   -0.290992
  27 C :    0.129890
  28 C :   -0.211850
  29 S :    0.058794
  30 H :    0.145718
  31 H :    0.151110
  32 H :    0.173592
  33 H :    0.150911
  34 S :    0.033881
  35 C :    0.033558
  36 C :    0.050660
  37 C :   -0.337264
  38 C :    0.140426
  39 C :   -0.164949
  40 C :    0.018358
  41 C :   -0.093351
  42 C :   -0.247117
  43 C :   -0.174530
  44 S :    0.068867
  45 H :    0.133693
  46 H :    0.127050
  47 H :    0.122973
  48 H :    0.122733
  49 H :    0.132194
  50 H :    0.160492
Sum of atomic charges:   -0.0000000

LOEWDIN ATOMIC CHARGES
----------------------
   0 C :   -0.131703
   1 C :   -0.099559
   2 C :   -0.166744
   3 C :   -0.167282
   4 C :   -0.097218
   5 C :   -0.131953
   6 N :    0.206561
   7 C :   -0.122321
   8 C :   -0.164433
   9 N :    0.201183
  10 C :   -0.100849
  11 C :   -0.131347
  12 C :   -0.092522
  13 C :   -0.065358
  14 H :    0.152237
  15 H :    0.149280
  16 H :    0.153013
  17 H :    0.148231
  18 H :    0.152906
  19 H :    0.148267
  20 S :    0.708433
  21 C :   -0.353117
  22 C :   -0.131077
  23 C :   -0.210460
  24 C :   -0.347271
  25 C :   -0.357957
  26 C :   -0.122302
  27 C :   -0.163175
  28 C :   -0.332217
  29 S :    0.709726
  30 H :    0.146940
  31 H :    0.144264
  32 H :    0.136911
  33 H :    0.129966
  34 S :    0.724891
  35 C :   -0.329132
  36 C :   -0.143468
  37 C :   -0.131370
  38 C :   -0.302330
  39 C :   -0.332984
  40 C :   -0.147225
  41 C :   -0.154300
  42 C :   -0.181216
  43 C :   -0.378658
  44 S :    0.691063
  45 H :    0.144291
  46 H :    0.145205
  47 H :    0.157597
  48 H :    0.157578
  49 H :    0.153323
  50 H :    0.127684

  Mayer bond orders larger than 0.1
B(  0-C ,  1-C ) :   1.6146 B(  0-C ,  5-C ) :   1.1934 B(  0-C , 19-H ) :   0.9773
B(  1-C ,  2-C ) :   1.1801 B(  1-C , 18-H ) :   0.9740 B(  2-C ,  3-C ) :   1.1639
B(  2-C ,  6-N ) :   1.4048 B(  3-C ,  4-C ) :   1.1972 B(  3-C ,  9-N ) :   1.4061
B(  4-C ,  5-C ) :   1.6206 B(  4-C , 49-H ) :   0.9768 B(  5-C , 17-H ) :   0.9784
B(  6-N ,  7-C ) :   1.3588 B(  7-C ,  8-C ) :   1.1975 B(  7-C , 13-C ) :   1.1240
B(  8-C ,  9-N ) :   1.4312 B(  8-C , 10-C ) :   1.1915 B( 10-C , 11-C ) :   1.5917
B( 10-C , 16-H ) :   0.9840 B( 11-C , 12-C ) :   1.2332 B( 11-C , 15-H ) :   0.9869
B( 12-C , 13-C ) :   1.5623 B( 12-C , 14-H ) :   0.9583 B( 13-C , 27-C ) :   0.8929
B( 20-S , 21-C ) :   1.2706 B( 20-S , 24-C ) :   1.2883 B( 21-C , 22-C ) :   1.6723
B( 21-C , 25-C ) :   0.9373 B( 22-C , 23-C ) :   1.2359 B( 22-C , 31-H ) :   0.8875
B( 23-C , 24-C ) :   1.6363 B( 23-C , 38-C ) :   0.9255 B( 24-C , 33-H ) :   0.9352
B( 25-C , 26-C ) :   1.6671 B( 25-C , 29-S ) :   1.2812 B( 26-C , 27-C ) :   1.2570
B( 26-C , 30-H ) :   0.8898 B( 27-C , 28-C ) :   1.6352 B( 28-C , 29-S ) :   1.2987
B( 28-C , 32-H ) :   0.9205 B( 34-S , 35-C ) :   1.3461 B( 34-S , 37-C ) :   0.1322
B( 34-S , 38-C ) :   1.2471 B( 35-C , 36-C ) :   1.5061 B( 35-C , 39-C ) :   0.8892
B( 36-C , 37-C ) :   1.2895 B( 36-C , 41-C ) :   1.0935 B( 37-C , 38-C ) :   1.5557
B( 37-C , 46-H ) :   0.9196 B( 39-C , 40-C ) :   1.5312 B( 39-C , 44-S ) :   1.3398
B( 40-C , 41-C ) :   1.0703 B( 40-C , 42-C ) :   1.1937 B( 41-C , 47-H ) :   0.8965
B( 41-C , 48-H ) :   0.8956 B( 42-C , 43-C ) :   1.7220 B( 42-C , 44-S ) :   0.1475
B( 42-C , 45-H ) :   0.9652 B( 43-C , 44-S ) :   1.2210 B( 43-C , 50-H ) :   0.9426

Dispersion correction           -0.023672767
FINAL SINGLE POINT ENERGY     -2817.070327496250

DIPOLE MOMENT
-------------
                                X             Y             Z
Electronic contribution:      5.93971       2.87298      -1.65571
Nuclear contribution   :     -5.62243      -2.88383       1.38960
                        -----------------------------------------
Total Dipole Moment    :      0.31728      -0.01084      -0.26611
                        -----------------------------------------
Magnitude (a.u.)       :      0.41425
Magnitude (Debye)      :      1.05293

                             ****ORCA TERMINATED NORMALLY****
TOTAL RUN TIME: 0 days 0 hours 15 minutes 54 seconds 496 msec
