                         Program Version 4.0.0 -  RELEASE  -
|  1> #
|  2> !wB97X-D3 def2-TZVP def2/J RIJCOSX Grid5 FinalGrid6 TightSCF
|  3> %pal
|  4>  nprocs 24
|  5> end
|  6> %tddft
|  7>   Mode sTDDFT
|  8>   nroots 2
|  9>   Ethresh 10.0
| 10>   maxcore 5000
| 11>   triplets true
| 12> end
| 13> * xyz 0 1
| 14> C 8.71185055 0.62368724 1.21601381
| 15> C 7.57620622 0.14843829 0.56363271
| 16> C 7.66137335 -1.04559470 -0.17558988
| 17> C 8.90028715 -1.74604333 -0.19620166
| 18> C 10.04778895 -1.26482510 0.45226812
| 19> C 9.93551410 -0.06568318 1.15278885
| 20> C 6.71766091 -1.85176736 -0.93323673
| 21> C 7.42816943 -3.01777846 -1.33714051
| 22> N 8.74137317 -2.92154575 -0.91007098
| 23> C 6.82141997 -4.07664465 -2.03055064
| 24> C 5.45932330 -3.96063847 -2.30431234
| 25> C 4.73941086 -2.81739820 -1.93151627
| 26> C 5.34389619 -1.73098026 -1.27138545
| 27> H 3.68436058 -2.75204368 -2.18704759
| 28> H 9.45530009 -3.62589225 -1.04937301
| 29> H 4.94663172 -4.76418648 -2.82643334
| 30> H 6.63914921 0.69083666 0.64713977
| 31> H 10.98563060 -1.81303343 0.41798726
| 32> H 10.80302162 0.33688103 1.66908183
| 33> H 8.65246854 1.54527270 1.78850476
| 34> N 0.44835534 1.13654061 0.03661364
| 35> C 1.57744233 1.88865282 -0.25753329
| 36> C 1.39608958 3.25964920 -0.21798582
| 37> S -0.25652653 3.63541208 0.20042173
| 38> C -0.60459031 1.88576785 0.31516776
| 39> C 2.80868487 1.19009944 -0.57924501
| 40> S 2.85027723 -0.58265658 -0.56671818
| 41> C 4.55691924 -0.52152386 -1.00447298
| 42> C 4.93805206 0.80125355 -1.14451768
| 43> N 3.96683429 1.74736202 -0.90466620
| 44> H 2.14746719 4.01338028 -0.41313823
| 45> H 5.92777401 1.12069802 -1.46440025
| 46> C -1.90727568 1.34710300 0.70347599
| 47> C -3.03792959 2.19627450 0.84723276
| 48> C -4.29642827 1.66364241 1.22811310
| 49> C -4.42082047 0.28034485 1.45070926
| 50> C -3.32548953 -0.58056629 1.27840512
| 51> C -2.05917669 -0.05211816 0.90764806
| 52> N -3.42139067 -1.95858360 1.60366550
| 53> C -4.35020164 -2.72724485 1.13638457
| 54> C -4.41134663 -4.16328081 1.59441588
| 55> N -0.94344533 -0.90764336 0.88814780
| 56> C -0.83691509 -1.94765518 0.13038519
| 57> C -1.80076390 -2.29972331 -0.98750922
| 58> N -2.86553451 3.59100363 0.72630432
| 59> C -3.58073668 4.34991080 -0.04206898
| 60> C -4.58837792 3.85399022 -1.05838355
| 61> N -5.36185344 2.55151100 1.52477147
| 62> C -6.57169314 2.36906685 1.10449621
| 63> C -7.01055210 1.27636719 0.14411987
| 64> C -5.38856626 -2.31582892 0.10598769
| 65> C 0.34008178 -2.87324990 0.30422378
| 66> C -3.36189022 5.84067802 0.00070638
| 67> C -7.64996147 3.32884510 1.54344702
| 68> H -6.34389235 -2.09921197 0.58490893
| 69> H -5.07728247 -1.42737282 -0.43835006
| 70> H -5.55890991 -3.12335141 -0.60376444
| 71> H -5.38970146 -4.39162275 2.01747918
| 72> H -4.26305680 -4.84206471 0.75366662
| 73> H -3.65232910 -4.36829970 2.34327923
| 74> H -8.07593803 3.84953339 0.68485152
| 75> H -7.25907550 4.06671468 2.23752532
| 76> H -8.46758330 2.79430879 2.02721881
| 77> H -7.48667173 0.45575398 0.68141254
| 78> H -6.16643792 0.87045077 -0.40848533
| 79> H -7.74101363 1.66567341 -0.56294368
| 80> H -4.53153707 2.77550577 -1.18101585
| 81> H -5.60353144 4.11006995 -0.75440250
| 82> H -4.41038280 4.32842415 -2.02304695
| 83> H -4.28876202 6.35676552 0.25203384
| 84> H -3.04476584 6.21256148 -0.97395181
| 85> H -2.60749006 6.10482974 0.73586585
| 86> H 0.00005914 -3.87862512 0.55598215
| 87> H 0.91129802 -2.95292608 -0.62118877
| 88> H 1.00088916 -2.52356927 1.09184821
| 89> H -2.34501637 -3.21470870 -0.75192637
| 90> H -2.52417007 -1.50516929 -1.15192995
| 91> H -1.25610038 -2.47581726 -1.91448872
| 92> H 7.38626048 -4.95631947 -2.32572995
| 93> H -5.36200695 -0.12047234 1.81458974
| 94> *
| 95> $new_job
| 96> #
| 97> !wB97X-D3 def2-TZVP def2/J RIJCOSX Grid5 FinalGrid6 TightSCF
| 98> %pal
| 99>  nprocs 24
|100> end
|101> %elprop
|102>    dipole     true
|103>    quadrupole true
|104> end
|105> %tddft
|106>   Mode sTDDFT
|107>   nroots 2
|108>   Ethresh 10.0
|109>   maxcore 5000
|110> end
|111> * xyz 0 1
|112> C 8.71185055 0.62368724 1.21601381
|113> C 7.57620622 0.14843829 0.56363271
|114> C 7.66137335 -1.04559470 -0.17558988
|115> C 8.90028715 -1.74604333 -0.19620166
|116> C 10.04778895 -1.26482510 0.45226812
|117> C 9.93551410 -0.06568318 1.15278885
|118> C 6.71766091 -1.85176736 -0.93323673
|119> C 7.42816943 -3.01777846 -1.33714051
|120> N 8.74137317 -2.92154575 -0.91007098
|121> C 6.82141997 -4.07664465 -2.03055064
|122> C 5.45932330 -3.96063847 -2.30431234
|123> C 4.73941086 -2.81739820 -1.93151627
|124> C 5.34389619 -1.73098026 -1.27138545
|125> H 3.68436058 -2.75204368 -2.18704759
|126> H 9.45530009 -3.62589225 -1.04937301
|127> H 4.94663172 -4.76418648 -2.82643334
|128> H 6.63914921 0.69083666 0.64713977
|129> H 10.98563060 -1.81303343 0.41798726
|130> H 10.80302162 0.33688103 1.66908183
|131> H 8.65246854 1.54527270 1.78850476
|132> N 0.44835534 1.13654061 0.03661364
|133> C 1.57744233 1.88865282 -0.25753329
|134> C 1.39608958 3.25964920 -0.21798582
|135> S -0.25652653 3.63541208 0.20042173
|136> C -0.60459031 1.88576785 0.31516776
|137> C 2.80868487 1.19009944 -0.57924501
|138> S 2.85027723 -0.58265658 -0.56671818
|139> C 4.55691924 -0.52152386 -1.00447298
|140> C 4.93805206 0.80125355 -1.14451768
|141> N 3.96683429 1.74736202 -0.90466620
|142> H 2.14746719 4.01338028 -0.41313823
|143> H 5.92777401 1.12069802 -1.46440025
|144> C -1.90727568 1.34710300 0.70347599
|145> C -3.03792959 2.19627450 0.84723276
|146> C -4.29642827 1.66364241 1.22811310
|147> C -4.42082047 0.28034485 1.45070926
|148> C -3.32548953 -0.58056629 1.27840512
|149> C -2.05917669 -0.05211816 0.90764806
|150> N -3.42139067 -1.95858360 1.60366550
|151> C -4.35020164 -2.72724485 1.13638457
|152> C -4.41134663 -4.16328081 1.59441588
|153> N -0.94344533 -0.90764336 0.88814780
|154> C -0.83691509 -1.94765518 0.13038519
|155> C -1.80076390 -2.29972331 -0.98750922
|156> N -2.86553451 3.59100363 0.72630432
|157> C -3.58073668 4.34991080 -0.04206898
|158> C -4.58837792 3.85399022 -1.05838355
|159> N -5.36185344 2.55151100 1.52477147
|160> C -6.57169314 2.36906685 1.10449621
|161> C -7.01055210 1.27636719 0.14411987
|162> C -5.38856626 -2.31582892 0.10598769
|163> C 0.34008178 -2.87324990 0.30422378
|164> C -3.36189022 5.84067802 0.00070638
|165> C -7.64996147 3.32884510 1.54344702
|166> H -6.34389235 -2.09921197 0.58490893
|167> H -5.07728247 -1.42737282 -0.43835006
|168> H -5.55890991 -3.12335141 -0.60376444
|169> H -5.38970146 -4.39162275 2.01747918
|170> H -4.26305680 -4.84206471 0.75366662
|171> H -3.65232910 -4.36829970 2.34327923
|172> H -8.07593803 3.84953339 0.68485152
|173> H -7.25907550 4.06671468 2.23752532
|174> H -8.46758330 2.79430879 2.02721881
|175> H -7.48667173 0.45575398 0.68141254
|176> H -6.16643792 0.87045077 -0.40848533
|177> H -7.74101363 1.66567341 -0.56294368
|178> H -4.53153707 2.77550577 -1.18101585
|179> H -5.60353144 4.11006995 -0.75440250
|180> H -4.41038280 4.32842415 -2.02304695
|181> H -4.28876202 6.35676552 0.25203384
|182> H -3.04476584 6.21256148 -0.97395181
|183> H -2.60749006 6.10482974 0.73586585
|184> H 0.00005914 -3.87862512 0.55598215
|185> H 0.91129802 -2.95292608 -0.62118877
|186> H 1.00088916 -2.52356927 1.09184821
|187> H -2.34501637 -3.21470870 -0.75192637
|188> H -2.52417007 -1.50516929 -1.15192995
|189> H -1.25610038 -2.47581726 -1.91448872
|190> H 7.38626048 -4.95631947 -2.32572995
|191> H -5.36200695 -0.12047234 1.81458974
|192> *
|193>
|194>                          ****END OF INPUT****
 Total Charge           Charge          ....    0
 Multiplicity           Mult            ....    1
 Number of Electrons    NEL             ....  332
Dispersion correction           -0.047412135
FINAL SINGLE POINT ENERGY     -2572.694748991507

CARTESIAN COORDINATES (ANGSTROEM)
---------------------------------
  C      8.711851    0.623687    1.216014
  C      7.576206    0.148438    0.563633
  C      7.661373   -1.045595   -0.175590
  C      8.900287   -1.746043   -0.196202
  C     10.047789   -1.264825    0.452268
  C      9.935514   -0.065683    1.152789
  C      6.717661   -1.851767   -0.933237
  C      7.428169   -3.017778   -1.337141
  N      8.741373   -2.921546   -0.910071
  C      6.821420   -4.076645   -2.030551
  C      5.459323   -3.960638   -2.304312
  C      4.739411   -2.817398   -1.931516
  C      5.343896   -1.730980   -1.271385
  H      3.684361   -2.752044   -2.187048
  H      9.455300   -3.625892   -1.049373
  H      4.946632   -4.764186   -2.826433
  H      6.639149    0.690837    0.647140
  H     10.985631   -1.813033    0.417987
  H     10.803022    0.336881    1.669082
  H      8.652469    1.545273    1.788505
  N      0.448355    1.136541    0.036614
  C      1.577442    1.888653   -0.257533
  C      1.396090    3.259649   -0.217986
  S     -0.256527    3.635412    0.200422
  C     -0.604590    1.885768    0.315168
  C      2.808685    1.190099   -0.579245
  S      2.850277   -0.582657   -0.566718
  C      4.556919   -0.521524   -1.004473
  C      4.938052    0.801254   -1.144518
  N      3.966834    1.747362   -0.904666
  H      2.147467    4.013380   -0.413138
  H      5.927774    1.120698   -1.464400
  C     -1.907276    1.347103    0.703476
  C     -3.037930    2.196274    0.847233
  C     -4.296428    1.663642    1.228113
  C     -4.420820    0.280345    1.450709
  C     -3.325490   -0.580566    1.278405
  C     -2.059177   -0.052118    0.907648
  N     -3.421391   -1.958584    1.603665
  C     -4.350202   -2.727245    1.136385
  C     -4.411347   -4.163281    1.594416
  N     -0.943445   -0.907643    0.888148
  C     -0.836915   -1.947655    0.130385
  C     -1.800764   -2.299723   -0.987509
  N     -2.865535    3.591004    0.726304
  C     -3.580737    4.349911   -0.042069
  C     -4.588378    3.853990   -1.058384
  N     -5.361853    2.551511    1.524771
  C     -6.571693    2.369067    1.104496
  C     -7.010552    1.276367    0.144120
  C     -5.388566   -2.315829    0.105988
  C      0.340082   -2.873250    0.304224
  C     -3.361890    5.840678    0.000706
  C     -7.649961    3.328845    1.543447
  H     -6.343892   -2.099212    0.584909
  H     -5.077282   -1.427373   -0.438350
  H     -5.558910   -3.123351   -0.603764
  H     -5.389701   -4.391623    2.017479
  H     -4.263057   -4.842065    0.753667
  H     -3.652329   -4.368300    2.343279
  H     -8.075938    3.849533    0.684852
  H     -7.259075    4.066715    2.237525
  H     -8.467583    2.794309    2.027219
  H     -7.486672    0.455754    0.681413
  H     -6.166438    0.870451   -0.408485
  H     -7.741014    1.665673   -0.562944
  H     -4.531537    2.775506   -1.181016
  H     -5.603531    4.110070   -0.754402
  H     -4.410383    4.328424   -2.023047
  H     -4.288762    6.356766    0.252034
  H     -3.044766    6.212561   -0.973952
  H     -2.607490    6.104830    0.735866
  H      0.000059   -3.878625    0.555982
  H      0.911298   -2.952926   -0.621189
  H      1.000889   -2.523569    1.091848
  H     -2.345016   -3.214709   -0.751926
  H     -2.524170   -1.505169   -1.151930
  H     -1.256100   -2.475817   -1.914489
  H      7.386260   -4.956319   -2.325730
  H     -5.362007   -0.120472    1.814590

 Multiplicity           Mult            ....    1
 Number of Electrons    NEL             ....  332
 Basis Dimension        Dim             .... 1617

ORBITAL ENERGIES
----------------

  NO   OCC          E(Eh)            E(eV)
   0   2.0000     -88.972934     -2421.0766
   1   2.0000     -88.972117     -2421.0544
   2   2.0000     -14.462850      -393.5542
   3   2.0000     -14.421977      -392.4419
   4   2.0000     -14.420144      -392.3921
   5   2.0000     -14.418595      -392.3499
   6   2.0000     -14.415075      -392.2541
   7   2.0000     -14.411962      -392.1694
   8   2.0000     -14.405179      -391.9849
   9   2.0000     -10.346700      -281.5480
  10   2.0000     -10.346573      -281.5446
  11   2.0000     -10.345031      -281.5026
  12   2.0000     -10.344355      -281.4842
  13   2.0000     -10.342241      -281.4267
  14   2.0000     -10.327481      -281.0250
  15   2.0000     -10.323517      -280.9172
  16   2.0000     -10.320396      -280.8323
  17   2.0000     -10.320394      -280.8322
  18   2.0000     -10.318773      -280.7881
  19   2.0000     -10.314021      -280.6588
  20   2.0000     -10.313621      -280.6479
  21   2.0000     -10.312621      -280.6207
  22   2.0000     -10.311361      -280.5864
  23   2.0000     -10.304447      -280.3983
  24   2.0000     -10.301224      -280.3106
  25   2.0000     -10.301143      -280.3083
  26   2.0000     -10.298607      -280.2394
  27   2.0000     -10.289559      -279.9931
  28   2.0000     -10.288983      -279.9775
  29   2.0000     -10.286970      -279.9227
  30   2.0000     -10.285451      -279.8814
  31   2.0000     -10.284253      -279.8487
  32   2.0000     -10.284102      -279.8446
  33   2.0000     -10.283494      -279.8281
  34   2.0000     -10.282634      -279.8047
  35   2.0000     -10.282623      -279.8044
  36   2.0000     -10.281225      -279.7664
  37   2.0000     -10.279375      -279.7160
  38   2.0000     -10.279358      -279.7155
  39   2.0000     -10.277636      -279.6687
  40   2.0000     -10.276591      -279.6403
  41   2.0000     -10.275758      -279.6176
  42   2.0000     -10.271966      -279.5144
  43   2.0000     -10.269444      -279.4458
  44   2.0000     -10.261592      -279.2321
  45   2.0000      -8.068417      -219.5528
  46   2.0000      -8.068283      -219.5491
  47   2.0000      -6.021577      -163.8554
  48   2.0000      -6.021427      -163.8514
  49   2.0000      -6.017560      -163.7461
  50   2.0000      -6.017225      -163.7370
  51   2.0000      -6.015692      -163.6953
  52   2.0000      -6.015578      -163.6922
  53   2.0000      -1.099372       -29.9154
  54   2.0000      -1.074396       -29.2358
  55   2.0000      -1.065882       -29.0041
  56   2.0000      -1.055831       -28.7306
  57   2.0000      -1.053008       -28.6538
  58   2.0000      -1.036420       -28.2024
  59   2.0000      -1.025851       -27.9148
  60   2.0000      -0.970690       -26.4138
  61   2.0000      -0.959873       -26.1195
  62   2.0000      -0.958168       -26.0731
  63   2.0000      -0.911610       -24.8062
  64   2.0000      -0.907469       -24.6935
  65   2.0000      -0.905461       -24.6388
  66   2.0000      -0.894908       -24.3517
  67   2.0000      -0.891669       -24.2636
  68   2.0000      -0.882774       -24.0215
  69   2.0000      -0.876086       -23.8395
  70   2.0000      -0.868018       -23.6200
  71   2.0000      -0.860983       -23.4285
  72   2.0000      -0.849954       -23.1284
  73   2.0000      -0.837197       -22.7813
  74   2.0000      -0.833235       -22.6735
  75   2.0000      -0.831016       -22.6131
  76   2.0000      -0.826616       -22.4934
  77   2.0000      -0.825270       -22.4567
  78   2.0000      -0.814810       -22.1721
  79   2.0000      -0.806815       -21.9545
  80   2.0000      -0.802852       -21.8467
  81   2.0000      -0.759054       -20.6549
  82   2.0000      -0.742832       -20.2135
  83   2.0000      -0.738634       -20.0993
  84   2.0000      -0.717026       -19.5113
  85   2.0000      -0.712182       -19.3795
  86   2.0000      -0.704254       -19.1637
  87   2.0000      -0.700800       -19.0698
  88   2.0000      -0.693164       -18.8620
  89   2.0000      -0.674323       -18.3493
  90   2.0000      -0.664296       -18.0764
  91   2.0000      -0.639624       -17.4050
  92   2.0000      -0.636011       -17.3067
  93   2.0000      -0.629754       -17.1365
  94   2.0000      -0.623786       -16.9741
  95   2.0000      -0.613383       -16.6910
  96   2.0000      -0.607021       -16.5179
  97   2.0000      -0.606346       -16.4995
  98   2.0000      -0.597836       -16.2680
  99   2.0000      -0.595632       -16.2080
 100   2.0000      -0.587615       -15.9898
 101   2.0000      -0.577132       -15.7046
 102   2.0000      -0.575642       -15.6640
 103   2.0000      -0.567611       -15.4455
 104   2.0000      -0.566079       -15.4038
 105   2.0000      -0.561527       -15.2799
 106   2.0000      -0.558415       -15.1952
 107   2.0000      -0.553891       -15.0721
 108   2.0000      -0.553056       -15.0494
 109   2.0000      -0.551916       -15.0184
 110   2.0000      -0.549641       -14.9565
 111   2.0000      -0.544070       -14.8049
 112   2.0000      -0.542568       -14.7640
 113   2.0000      -0.539655       -14.6848
 114   2.0000      -0.535876       -14.5819
 115   2.0000      -0.530313       -14.4305
 116   2.0000      -0.528854       -14.3909
 117   2.0000      -0.524553       -14.2738
 118   2.0000      -0.521005       -14.1773
 119   2.0000      -0.518440       -14.1075
 120   2.0000      -0.515947       -14.0396
 121   2.0000      -0.512264       -13.9394
 122   2.0000      -0.507268       -13.8035
 123   2.0000      -0.504402       -13.7255
 124   2.0000      -0.502819       -13.6824
 125   2.0000      -0.498327       -13.5602
 126   2.0000      -0.497419       -13.5355
 127   2.0000      -0.494297       -13.4505
 128   2.0000      -0.493477       -13.4282
 129   2.0000      -0.489627       -13.3234
 130   2.0000      -0.487067       -13.2538
 131   2.0000      -0.480274       -13.0689
 132   2.0000      -0.475850       -12.9485
 133   2.0000      -0.473433       -12.8828
 134   2.0000      -0.472574       -12.8594
 135   2.0000      -0.468152       -12.7391
 136   2.0000      -0.466718       -12.7000
 137   2.0000      -0.464905       -12.6507
 138   2.0000      -0.462195       -12.5770
 139   2.0000      -0.458872       -12.4865
 140   2.0000      -0.455675       -12.3996
 141   2.0000      -0.449310       -12.2264
 142   2.0000      -0.438734       -11.9386
 143   2.0000      -0.435535       -11.8515
 144   2.0000      -0.431135       -11.7318
 145   2.0000      -0.425861       -11.5883
 146   2.0000      -0.424754       -11.5581
 147   2.0000      -0.413338       -11.2475
 148   2.0000      -0.392973       -10.6933
 149   2.0000      -0.389711       -10.6046
 150   2.0000      -0.384575       -10.4648
 151   2.0000      -0.378138       -10.2897
 152   2.0000      -0.373423       -10.1613
 153   2.0000      -0.366722        -9.9790
 154   2.0000      -0.360899        -9.8206
 155   2.0000      -0.357459        -9.7269
 156   2.0000      -0.351734        -9.5712
 157   2.0000      -0.346852        -9.4383
 158   2.0000      -0.345081        -9.3901
 159   2.0000      -0.337997        -9.1974
 160   2.0000      -0.326866        -8.8945
 161   2.0000      -0.308648        -8.3987
 162   2.0000      -0.292714        -7.9652
 163   2.0000      -0.286009        -7.7827
 164   2.0000      -0.269729        -7.3397
 165   2.0000      -0.264854        -7.2071
 166   0.0000       0.008485         0.2309
 167   0.0000       0.014332         0.3900
 168   0.0000       0.037156         1.0111
 169   0.0000       0.041031         1.1165
 170   0.0000       0.055358         1.5064

MULLIKEN ATOMIC CHARGES
-----------------------
   0 C :   -0.151714
   1 C :   -0.231154
   2 C :   -0.045078
   3 C :    0.169150
   4 C :   -0.226473
   5 C :   -0.091576
   6 C :   -0.008984
   7 C :    0.186170
   8 N :   -0.300010
   9 C :   -0.252457
  10 C :   -0.080585
  11 C :   -0.277404
  12 C :    0.198917
  13 H :    0.129765
  14 H :    0.234910
  15 H :    0.119278
  16 H :    0.214492
  17 H :    0.113035
  18 H :    0.121318
  19 H :    0.118891
  20 N :   -0.304283
  21 C :    0.065632
  22 C :   -0.203557
  23 S :    0.079752
  24 C :    0.182647
  25 C :    0.145020
  26 S :    0.021036
  27 C :    0.058598
  28 C :   -0.228952
  29 N :   -0.271589
  30 H :    0.171228
  31 H :    0.184688
  32 C :    0.089728
  33 C :    0.067056
  34 C :    0.176588
  35 C :   -0.466233
  36 C :    0.233808
  37 C :   -0.065516
  38 N :   -0.239531
  39 C :    0.085639
  40 C :   -0.338720
  41 N :   -0.220283
  42 C :    0.181783
  43 C :   -0.371684
  44 N :   -0.342295
  45 C :    0.197771
  46 C :   -0.371720
  47 N :   -0.246870
  48 C :    0.082219
  49 C :   -0.374189
  50 C :   -0.370825
  51 C :   -0.375016
  52 C :   -0.358346
  53 C :   -0.340292
  54 H :    0.141965
  55 H :    0.143396
  56 H :    0.138298
  57 H :    0.126200
  58 H :    0.120700
  59 H :    0.145408
  60 H :    0.120440
  61 H :    0.144040
  62 H :    0.129467
  63 H :    0.144207
  64 H :    0.144823
  65 H :    0.138263
  66 H :    0.140518
  67 H :    0.136510
  68 H :    0.140789
  69 H :    0.132539
  70 H :    0.128587
  71 H :    0.147343
  72 H :    0.130635
  73 H :    0.121012
  74 H :    0.151669
  75 H :    0.127213
  76 H :    0.131837
  77 H :    0.138695
  78 H :    0.111671
  79 H :    0.149990
Sum of atomic charges:   -0.0000000

LOEWDIN ATOMIC CHARGES
----------------------
   0 C :   -0.158575
   1 C :   -0.103674
   2 C :   -0.080645
   3 C :   -0.146012
   4 C :   -0.134570
   5 C :   -0.143358
   6 C :   -0.041325
   7 C :   -0.144414
   8 N :    0.199263
   9 C :   -0.133179
  10 C :   -0.143611
  11 C :   -0.128549
  12 C :   -0.108205
  13 H :    0.143967
  14 H :    0.192303
  15 H :    0.145321
  16 H :    0.155390
  17 H :    0.142430
  18 H :    0.144128
  19 H :    0.144029
  20 N :    0.146870
  21 C :   -0.294859
  22 C :   -0.346135
  23 S :    0.713207
  24 C :   -0.346630
  25 C :   -0.385268
  26 S :    0.757956
  27 C :   -0.327430
  28 C :   -0.235254
  29 N :    0.104032
  30 H :    0.136595
  31 H :    0.146374
  32 C :   -0.094082
  33 C :   -0.144192
  34 C :   -0.194820
  35 C :   -0.094722
  36 C :   -0.188021
  37 C :   -0.126665
  38 N :    0.176906
  39 C :   -0.271850
  40 C :   -0.263012
  41 N :    0.201118
  42 C :   -0.253865
  43 C :   -0.261624
  44 N :    0.159200
  45 C :   -0.247261
  46 C :   -0.258018
  47 N :    0.172752
  48 C :   -0.273539
  49 C :   -0.273114
  50 C :   -0.272992
  51 C :   -0.271560
  52 C :   -0.259057
  53 C :   -0.264013
  54 H :    0.131160
  55 H :    0.130943
  56 H :    0.129700
  57 H :    0.130026
  58 H :    0.128008
  59 H :    0.132264
  60 H :    0.127627
  61 H :    0.131779
  62 H :    0.130921
  63 H :    0.131881
  64 H :    0.131126
  65 H :    0.129803
  66 H :    0.133315
  67 H :    0.135300
  68 H :    0.130813
  69 H :    0.133070
  70 H :    0.131582
  71 H :    0.132399
  72 H :    0.129405
  73 H :    0.122890
  74 H :    0.130433
  75 H :    0.131216
  76 H :    0.130356
  77 H :    0.129343
  78 H :    0.142686
  79 H :    0.154212

  Mayer bond orders larger than 0.1
B(  0-C ,  1-C ) :   1.5332 B(  0-C ,  5-C ) :   1.3595 B(  0-C , 19-H ) :   0.9854
B(  1-C ,  2-C ) :   1.2859 B(  1-C , 16-H ) :   0.9183 B(  2-C ,  3-C ) :   1.3738
B(  2-C ,  6-C ) :   1.0491 B(  3-C ,  4-C ) :   1.3077 B(  3-C ,  8-N ) :   1.1189
B(  4-C ,  5-C ) :   1.4839 B(  4-C , 17-H ) :   0.9768 B(  5-C , 18-H ) :   0.9806
B(  6-C ,  7-C ) :   1.3307 B(  6-C , 12-C ) :   1.2165 B(  7-C ,  8-N ) :   1.1505
B(  7-C ,  9-C ) :   1.2766 B(  8-N , 14-H ) :   0.9130 B(  9-C , 10-C ) :   1.4642
B(  9-C , 78-H ) :   0.9831 B( 10-C , 11-C ) :   1.4074 B( 10-C , 15-H ) :   0.9848
B( 11-C , 12-C ) :   1.4355 B( 11-C , 13-H ) :   0.9561 B( 12-C , 27-C ) :   0.8210
B( 20-N , 21-C ) :   1.2104 B( 20-N , 24-C ) :   1.6592 B( 21-C , 22-C ) :   1.6911
B( 21-C , 25-C ) :   0.9995 B( 22-C , 23-S ) :   1.2951 B( 22-C , 30-H ) :   0.9185
B( 23-S , 24-C ) :   1.2783 B( 24-C , 32-C ) :   0.9437 B( 25-C , 26-S ) :   1.3048
B( 25-C , 29-N ) :   1.6290 B( 26-S , 27-C ) :   1.2637 B( 27-C , 28-C ) :   1.5874
B( 28-C , 29-N ) :   1.3136 B( 28-C , 31-H ) :   0.9777 B( 32-C , 33-C ) :   1.2849
B( 32-C , 37-C ) :   1.3013 B( 33-C , 34-C ) :   1.3751 B( 33-C , 44-N ) :   1.0461
B( 34-C , 35-C ) :   1.3056 B( 34-C , 47-N ) :   1.0137 B( 35-C , 36-C ) :   1.3204
B( 35-C , 79-H ) :   0.9736 B( 36-C , 37-C ) :   1.3288 B( 36-C , 38-N ) :   1.0203
B( 37-C , 41-N ) :   1.1586 B( 38-N , 39-C ) :   1.8986 B( 39-C , 40-C ) :   0.9715
B( 39-C , 50-C ) :   0.9393 B( 40-C , 57-H ) :   0.9616 B( 40-C , 58-H ) :   0.9590
B( 40-C , 59-H ) :   0.9862 B( 41-N , 42-C ) :   1.8818 B( 42-C , 43-C ) :   0.9405
B( 42-C , 51-C ) :   0.9356 B( 43-C , 75-H ) :   0.9630 B( 43-C , 76-H ) :   0.9821
B( 43-C , 77-H ) :   0.9578 B( 44-N , 45-C ) :   1.8322 B( 45-C , 46-C ) :   0.9553
B( 45-C , 52-C ) :   0.9497 B( 46-C , 66-H ) :   0.9760 B( 46-C , 67-H ) :   0.9599
B( 46-C , 68-H ) :   0.9552 B( 47-N , 48-C ) :   1.8950 B( 48-C , 49-C ) :   0.9414
B( 48-C , 53-C ) :   0.9714 B( 49-C , 63-H ) :   0.9646 B( 49-C , 64-H ) :   0.9759
B( 49-C , 65-H ) :   0.9599 B( 50-C , 54-H ) :   0.9641 B( 50-C , 55-H ) :   0.9773
B( 50-C , 56-H ) :   0.9601 B( 51-C , 72-H ) :   0.9541 B( 51-C , 73-H ) :   0.9716
B( 51-C , 74-H ) :   0.9915 B( 52-C , 69-H ) :   0.9606 B( 52-C , 70-H ) :   0.9605
B( 52-C , 71-H ) :   0.9884 B( 53-C , 60-H ) :   0.9581 B( 53-C , 61-H ) :   0.9866
B( 53-C , 62-H ) :   0.9621

Dispersion correction           -0.047412135
FINAL SINGLE POINT ENERGY     -2572.694748836504

DIPOLE MOMENT
-------------
                                X             Y             Z
Electronic contribution:     59.29583       7.70768       1.67660
Nuclear contribution   :    -61.65948      -8.94215      -3.16204
                        -----------------------------------------
Total Dipole Moment    :     -2.36365      -1.23446      -1.48544
                        -----------------------------------------
Magnitude (a.u.)       :      3.05242
Magnitude (Debye)      :      7.75863

                             ****ORCA TERMINATED NORMALLY****
TOTAL RUN TIME: 0 days 0 hours 27 minutes 55 seconds 779 msec
