                         Program Version 4.0.0 -  RELEASE  -
|  1> #
|  2> !wB97X-D3 def2-TZVP def2/J RIJCOSX Grid5 FinalGrid6 TightSCF
|  3> %pal
|  4>  nprocs 24
|  5> end
|  6> %tddft
|  7>   Mode sTDDFT
|  8>   nroots 2
|  9>   Ethresh 10.0
| 10>   maxcore 5000
| 11>   triplets true
| 12> end
| 13> * xyz 0 1
| 14> C -4.00518847 -0.25060702 -1.39631101
| 15> C -3.02743723 -0.94669900 -0.69030986
| 16> C -3.40758341 -1.73900280 0.40925480
| 17> C -4.79197281 -1.83707720 0.72655542
| 18> C -5.77902270 -1.13237591 0.02024544
| 19> C -5.36310908 -0.33141299 -1.04003981
| 20> C -2.70784430 -2.60966737 1.33992547
| 21> C -3.71533520 -3.22319287 2.14014871
| 22> N -4.95297998 -2.72486478 1.77544092
| 23> C -3.42977302 -4.19194604 3.11399827
| 24> C -2.09742045 -4.56624288 3.27474429
| 25> C -1.08267361 -3.96585170 2.51703332
| 26> C -1.35290251 -2.96819974 1.56230845
| 27> H -0.04941171 -4.25515765 2.68554124
| 28> H -5.83908973 -3.00742880 2.17605913
| 29> H -1.83582625 -5.32331394 4.00852903
| 30> H -1.99054371 -0.88477141 -1.00801227
| 31> H -6.82936707 -1.21855408 0.28502788
| 32> H -6.09933121 0.22747348 -1.61128341
| 33> H -3.71568743 0.36316130 -2.24468484
| 34> S 2.04281100 1.82819750 -0.36956571
| 35> C 2.50784602 0.12341277 -0.35114888
| 36> N 3.74557874 -0.09416816 -0.79070116
| 37> N 4.39321891 1.04177862 -1.16267607
| 38> C 3.66637517 2.14271503 -1.01459405
| 39> C 1.61296206 -0.92067090 0.10244598
| 40> N 1.91522005 -2.21146148 0.12148069
| 41> N 0.90340711 -2.99728934 0.59427224
| 42> C -0.19535790 -2.32961141 0.91689689
| 43> S -0.02517076 -0.57499329 0.68445987
| 44> N 6.33707655 2.86390808 -2.09735554
| 45> C 5.42514899 3.78628335 -1.86082415
| 46> C 5.76697695 5.18657198 -2.14858593
| 47> N 6.97410894 5.44297420 -2.63018107
| 48> S 7.84038649 3.78445146 -2.76567070
| 49> C 4.76763241 6.18487200 -1.88791950
| 50> C 3.55311367 5.78490273 -1.38719756
| 51> N 3.21531648 4.47703305 -1.11158126
| 52> C 4.09314848 3.49873218 -1.32896572
| 53> H 2.77573532 6.52560044 -1.18030363
| 54> H -4.21963404 -4.64142295 3.70918341
| 55> H 4.97639925 7.23231555 -2.08553934
| 56> *
| 57> $new_job
| 58> #
| 59> !wB97X-D3 def2-TZVP def2/J RIJCOSX Grid5 FinalGrid6 TightSCF
| 60> %pal
| 61>  nprocs 24
| 62> end
| 63> %elprop
| 64>    dipole     true
| 65>    quadrupole true
| 66> end
| 67> %tddft
| 68>   Mode sTDDFT
| 69>   nroots 2
| 70>   Ethresh 10.0
| 71>   maxcore 5000
| 72> end
| 73> * xyz 0 1
| 74> C -4.00518847 -0.25060702 -1.39631101
| 75> C -3.02743723 -0.94669900 -0.69030986
| 76> C -3.40758341 -1.73900280 0.40925480
| 77> C -4.79197281 -1.83707720 0.72655542
| 78> C -5.77902270 -1.13237591 0.02024544
| 79> C -5.36310908 -0.33141299 -1.04003981
| 80> C -2.70784430 -2.60966737 1.33992547
| 81> C -3.71533520 -3.22319287 2.14014871
| 82> N -4.95297998 -2.72486478 1.77544092
| 83> C -3.42977302 -4.19194604 3.11399827
| 84> C -2.09742045 -4.56624288 3.27474429
| 85> C -1.08267361 -3.96585170 2.51703332
| 86> C -1.35290251 -2.96819974 1.56230845
| 87> H -0.04941171 -4.25515765 2.68554124
| 88> H -5.83908973 -3.00742880 2.17605913
| 89> H -1.83582625 -5.32331394 4.00852903
| 90> H -1.99054371 -0.88477141 -1.00801227
| 91> H -6.82936707 -1.21855408 0.28502788
| 92> H -6.09933121 0.22747348 -1.61128341
| 93> H -3.71568743 0.36316130 -2.24468484
| 94> S 2.04281100 1.82819750 -0.36956571
| 95> C 2.50784602 0.12341277 -0.35114888
| 96> N 3.74557874 -0.09416816 -0.79070116
| 97> N 4.39321891 1.04177862 -1.16267607
| 98> C 3.66637517 2.14271503 -1.01459405
| 99> C 1.61296206 -0.92067090 0.10244598
|100> N 1.91522005 -2.21146148 0.12148069
|101> N 0.90340711 -2.99728934 0.59427224
|102> C -0.19535790 -2.32961141 0.91689689
|103> S -0.02517076 -0.57499329 0.68445987
|104> N 6.33707655 2.86390808 -2.09735554
|105> C 5.42514899 3.78628335 -1.86082415
|106> C 5.76697695 5.18657198 -2.14858593
|107> N 6.97410894 5.44297420 -2.63018107
|108> S 7.84038649 3.78445146 -2.76567070
|109> C 4.76763241 6.18487200 -1.88791950
|110> C 3.55311367 5.78490273 -1.38719756
|111> N 3.21531648 4.47703305 -1.11158126
|112> C 4.09314848 3.49873218 -1.32896572
|113> H 2.77573532 6.52560044 -1.18030363
|114> H -4.21963404 -4.64142295 3.70918341
|115> H 4.97639925 7.23231555 -2.08553934
|116> *
|117>
|118>                          ****END OF INPUT****
 Total Charge           Charge          ....    0
 Multiplicity           Mult            ....    1
 Number of Electrons    NEL             ....  240
Dispersion correction           -0.019417058
FINAL SINGLE POINT ENERGY     -2438.833799996954

CARTESIAN COORDINATES (ANGSTROEM)
---------------------------------
  C     -4.005188   -0.250607   -1.396311
  C     -3.027437   -0.946699   -0.690310
  C     -3.407583   -1.739003    0.409255
  C     -4.791973   -1.837077    0.726555
  C     -5.779023   -1.132376    0.020245
  C     -5.363109   -0.331413   -1.040040
  C     -2.707844   -2.609667    1.339925
  C     -3.715335   -3.223193    2.140149
  N     -4.952980   -2.724865    1.775441
  C     -3.429773   -4.191946    3.113998
  C     -2.097420   -4.566243    3.274744
  C     -1.082674   -3.965852    2.517033
  C     -1.352903   -2.968200    1.562308
  H     -0.049412   -4.255158    2.685541
  H     -5.839090   -3.007429    2.176059
  H     -1.835826   -5.323314    4.008529
  H     -1.990544   -0.884771   -1.008012
  H     -6.829367   -1.218554    0.285028
  H     -6.099331    0.227473   -1.611283
  H     -3.715687    0.363161   -2.244685
  S      2.042811    1.828197   -0.369566
  C      2.507846    0.123413   -0.351149
  N      3.745579   -0.094168   -0.790701
  N      4.393219    1.041779   -1.162676
  C      3.666375    2.142715   -1.014594
  C      1.612962   -0.920671    0.102446
  N      1.915220   -2.211461    0.121481
  N      0.903407   -2.997289    0.594272
  C     -0.195358   -2.329611    0.916897
  S     -0.025171   -0.574993    0.684460
  N      6.337077    2.863908   -2.097356
  C      5.425149    3.786283   -1.860824
  C      5.766977    5.186572   -2.148586
  N      6.974109    5.442974   -2.630181
  S      7.840386    3.784451   -2.765671
  C      4.767632    6.184872   -1.887919
  C      3.553114    5.784903   -1.387198
  N      3.215316    4.477033   -1.111581
  C      4.093148    3.498732   -1.328966
  H      2.775735    6.525600   -1.180304
  H     -4.219634   -4.641423    3.709183
  H      4.976399    7.232316   -2.085539

 Multiplicity           Mult            ....    1
 Number of Electrons    NEL             ....  240
 Basis Dimension        Dim             .... 1070

ORBITAL ENERGIES
----------------

  NO   OCC          E(Eh)            E(eV)
   0   2.0000     -89.046467     -2423.0775
   1   2.0000     -89.017918     -2422.3007
   2   2.0000     -89.013604     -2422.1833
   3   2.0000     -14.501914      -394.6171
   4   2.0000     -14.495170      -394.4336
   5   2.0000     -14.479130      -393.9972
   6   2.0000     -14.479053      -393.9951
   7   2.0000     -14.474678      -393.8760
   8   2.0000     -14.473782      -393.8516
   9   2.0000     -14.468927      -393.7195
  10   2.0000     -14.468414      -393.7056
  11   2.0000     -10.388115      -282.6750
  12   2.0000     -10.387004      -282.6447
  13   2.0000     -10.382071      -282.5105
  14   2.0000     -10.381956      -282.5074
  15   2.0000     -10.379591      -282.4430
  16   2.0000     -10.368480      -282.1407
  17   2.0000     -10.366488      -282.0865
  18   2.0000     -10.350766      -281.6587
  19   2.0000     -10.340594      -281.3819
  20   2.0000     -10.337169      -281.2887
  21   2.0000     -10.325205      -280.9631
  22   2.0000     -10.323561      -280.9184
  23   2.0000     -10.310734      -280.5693
  24   2.0000     -10.303208      -280.3645
  25   2.0000     -10.302179      -280.3366
  26   2.0000     -10.298385      -280.2333
  27   2.0000     -10.296626      -280.1854
  28   2.0000     -10.296173      -280.1731
  29   2.0000     -10.295151      -280.1453
  30   2.0000     -10.294492      -280.1274
  31   2.0000     -10.285881      -279.8931
  32   2.0000      -8.134879      -221.3613
  33   2.0000      -8.114033      -220.7941
  34   2.0000      -8.110375      -220.6945
  35   2.0000      -6.090708      -165.7366
  36   2.0000      -6.084294      -165.5620
  37   2.0000      -6.080227      -165.4514
  38   2.0000      -6.066979      -165.0909
  39   2.0000      -6.063301      -164.9908
  40   2.0000      -6.063178      -164.9875
  41   2.0000      -6.061320      -164.9369
  42   2.0000      -6.059542      -164.8885
  43   2.0000      -6.057564      -164.8347
  44   2.0000      -1.164000       -31.6740
  45   2.0000      -1.153003       -31.3748
  46   2.0000      -1.116316       -30.3765
  47   2.0000      -1.115662       -30.3587
  48   2.0000      -1.080853       -29.4115
  49   2.0000      -1.019227       -27.7346
  50   2.0000      -0.997809       -27.1518
  51   2.0000      -0.981950       -26.7202
  52   2.0000      -0.976883       -26.5823
  53   2.0000      -0.956777       -26.0352
  54   2.0000      -0.944806       -25.7095
  55   2.0000      -0.922011       -25.0892
  56   2.0000      -0.915784       -24.9198
  57   2.0000      -0.910434       -24.7742
  58   2.0000      -0.889672       -24.2092
  59   2.0000      -0.880939       -23.9716
  60   2.0000      -0.856615       -23.3097
  61   2.0000      -0.850017       -23.1302
  62   2.0000      -0.809240       -22.0205
  63   2.0000      -0.787795       -21.4370
  64   2.0000      -0.779246       -21.2044
  65   2.0000      -0.766332       -20.8530
  66   2.0000      -0.742478       -20.2039
  67   2.0000      -0.736188       -20.0327
  68   2.0000      -0.726971       -19.7819
  69   2.0000      -0.724091       -19.7035
  70   2.0000      -0.703492       -19.1430
  71   2.0000      -0.689501       -18.7623
  72   2.0000      -0.672235       -18.2925
  73   2.0000      -0.654754       -17.8168
  74   2.0000      -0.639537       -17.4027
  75   2.0000      -0.634312       -17.2605
  76   2.0000      -0.623256       -16.9597
  77   2.0000      -0.607386       -16.5278
  78   2.0000      -0.595221       -16.1968
  79   2.0000      -0.588235       -16.0067
  80   2.0000      -0.583768       -15.8851
  81   2.0000      -0.577120       -15.7042
  82   2.0000      -0.568429       -15.4677
  83   2.0000      -0.565573       -15.3900
  84   2.0000      -0.562086       -15.2951
  85   2.0000      -0.556355       -15.1392
  86   2.0000      -0.554048       -15.0764
  87   2.0000      -0.546728       -14.8772
  88   2.0000      -0.545222       -14.8362
  89   2.0000      -0.539568       -14.6824
  90   2.0000      -0.534153       -14.5350
  91   2.0000      -0.527545       -14.3552
  92   2.0000      -0.526818       -14.3354
  93   2.0000      -0.520601       -14.1663
  94   2.0000      -0.503438       -13.6992
  95   2.0000      -0.498108       -13.5542
  96   2.0000      -0.478253       -13.0139
  97   2.0000      -0.477113       -12.9829
  98   2.0000      -0.475118       -12.9286
  99   2.0000      -0.459529       -12.5044
 100   2.0000      -0.456378       -12.4187
 101   2.0000      -0.451138       -12.2761
 102   2.0000      -0.446685       -12.1549
 103   2.0000      -0.435963       -11.8632
 104   2.0000      -0.424544       -11.5524
 105   2.0000      -0.422167       -11.4878
 106   2.0000      -0.415273       -11.3002
 107   2.0000      -0.412050       -11.2125
 108   2.0000      -0.405331       -11.0296
 109   2.0000      -0.397315       -10.8115
 110   2.0000      -0.391646       -10.6572
 111   2.0000      -0.386277       -10.5111
 112   2.0000      -0.378928       -10.3112
 113   2.0000      -0.377606       -10.2752
 114   2.0000      -0.371108       -10.0984
 115   2.0000      -0.361900        -9.8478
 116   2.0000      -0.349867        -9.5204
 117   2.0000      -0.328884        -8.9494
 118   2.0000      -0.309609        -8.4249
 119   2.0000      -0.298912        -8.1338
 120   0.0000      -0.078099        -2.1252
 121   0.0000      -0.031654        -0.8614
 122   0.0000       0.003464         0.0942
 123   0.0000       0.008505         0.2314
 124   0.0000       0.028955         0.7879

MULLIKEN ATOMIC CHARGES
-----------------------
   0 C :   -0.171906
   1 C :   -0.127269
   2 C :   -0.031588
   3 C :    0.169942
   4 C :   -0.237336
   5 C :   -0.079931
   6 C :   -0.045452
   7 C :    0.176816
   8 N :   -0.300555
   9 C :   -0.231176
  10 C :   -0.060023
  11 C :   -0.286946
  12 C :    0.168164
  13 H :    0.152353
  14 H :    0.239162
  15 H :    0.131379
  16 H :    0.142891
  17 H :    0.119438
  18 H :    0.126273
  19 H :    0.122418
  20 S :    0.059721
  21 C :    0.104061
  22 N :   -0.156938
  23 N :   -0.062371
  24 C :    0.154953
  25 C :    0.094220
  26 N :   -0.123392
  27 N :   -0.137678
  28 C :    0.086806
  29 S :    0.000040
  30 N :   -0.180364
  31 C :    0.039445
  32 C :    0.106412
  33 N :   -0.219445
  34 S :    0.210708
  35 C :   -0.162312
  36 C :   -0.034935
  37 N :   -0.316603
  38 C :    0.133419
  39 H :    0.147705
  40 H :    0.122484
  41 H :    0.157411
Sum of atomic charges:   -0.0000000

LOEWDIN ATOMIC CHARGES
----------------------
   0 C :   -0.156065
   1 C :   -0.115306
   2 C :   -0.086689
   3 C :   -0.143217
   4 C :   -0.129465
   5 C :   -0.137498
   6 C :   -0.046346
   7 C :   -0.143155
   8 N :    0.202694
   9 C :   -0.117412
  10 C :   -0.135646
  11 C :   -0.095327
  12 C :   -0.115919
  13 H :    0.157306
  14 H :    0.194662
  15 H :    0.148954
  16 H :    0.140143
  17 H :    0.144462
  18 H :    0.146115
  19 H :    0.145062
  20 S :    0.733460
  21 C :   -0.449370
  22 N :    0.071970
  23 N :    0.081309
  24 C :   -0.403257
  25 C :   -0.461126
  26 N :    0.078223
  27 N :    0.057436
  28 C :   -0.380040
  29 S :    0.721809
  30 N :   -0.014264
  31 C :   -0.231968
  32 C :   -0.269650
  33 N :   -0.060953
  34 S :    0.534521
  35 C :   -0.107884
  36 C :   -0.189113
  37 N :    0.153234
  38 C :   -0.172737
  39 H :    0.147116
  40 H :    0.146031
  41 H :    0.157902

  Mayer bond orders larger than 0.1
B(  0-C ,  1-C ) :   1.5321 B(  0-C ,  5-C ) :   1.3590 B(  0-C , 19-H ) :   0.9821
B(  1-C ,  2-C ) :   1.2576 B(  1-C , 16-H ) :   0.9325 B(  2-C ,  3-C ) :   1.3946
B(  2-C ,  6-C ) :   1.0848 B(  3-C ,  4-C ) :   1.3090 B(  3-C ,  8-N ) :   1.1254
B(  4-C ,  5-C ) :   1.4896 B(  4-C , 17-H ) :   0.9725 B(  5-C , 18-H ) :   0.9796
B(  6-C ,  7-C ) :   1.3402 B(  6-C , 12-C ) :   1.2048 B(  7-C ,  8-N ) :   1.1495
B(  7-C ,  9-C ) :   1.2896 B(  8-N , 14-H ) :   0.9115 B(  9-C , 10-C ) :   1.4586
B(  9-C , 40-H ) :   0.9716 B( 10-C , 11-C ) :   1.3805 B( 10-C , 15-H ) :   0.9815
B( 11-C , 12-C ) :   1.4632 B( 11-C , 13-H ) :   0.9566 B( 12-C , 28-C ) :   0.8716
B( 20-S , 21-C ) :   1.3033 B( 20-S , 24-C ) :   1.2842 B( 21-C , 22-N ) :   1.6603
B( 21-C , 25-C ) :   0.9997 B( 22-N , 23-N ) :   1.1165 B( 23-N , 24-C ) :   1.6908
B( 24-C , 38-C ) :   1.0209 B( 25-C , 26-N ) :   1.7229 B( 25-C , 29-S ) :   1.2642
B( 26-N , 27-N ) :   1.1329 B( 27-N , 28-C ) :   1.6899 B( 28-C , 29-S ) :   1.2474
B( 30-N , 31-C ) :   1.7200 B( 30-N , 33-N ) :   0.1271 B( 30-N , 34-S ) :   1.1268
B( 31-C , 32-C ) :   1.0414 B( 31-C , 38-C ) :   1.0887 B( 32-C , 33-N ) :   1.7211
B( 32-C , 35-C ) :   1.1545 B( 33-N , 34-S ) :   1.1162 B( 35-C , 36-C ) :   1.6593
B( 35-C , 41-H ) :   0.9465 B( 36-C , 37-N ) :   1.2704 B( 36-C , 39-H ) :   0.9754
B( 37-N , 38-C ) :   1.6136

Dispersion correction           -0.019417058
FINAL SINGLE POINT ENERGY     -2438.833800005154

DIPOLE MOMENT
-------------
                                X             Y             Z
Electronic contribution:     28.60696       9.79966      -5.82724
Nuclear contribution   :    -31.37683      -8.47932       6.70266
                        -----------------------------------------
Total Dipole Moment    :     -2.76987       1.32034       0.87542
                        -----------------------------------------
Magnitude (a.u.)       :      3.19090
Magnitude (Debye)      :      8.11063

                             ****ORCA TERMINATED NORMALLY****
TOTAL RUN TIME: 0 days 0 hours 12 minutes 12 seconds 42 msec
