                         Program Version 4.0.0 -  RELEASE  -
|  1> #
|  2> !wB97X-D3 def2-TZVP def2/J RIJCOSX Grid5 FinalGrid6 TightSCF
|  3> %pal
|  4>  nprocs 24
|  5> end
|  6> %tddft
|  7>   Mode sTDDFT
|  8>   nroots 2
|  9>   Ethresh 10.0
| 10>   maxcore 5000
| 11>   triplets true
| 12> end
| 13> * xyz 0 1
| 14> C -6.92803581 0.46914466 -3.69643866
| 15> C -6.45553428 0.20533464 -2.41362994
| 16> C -7.31241190 -0.40985607 -1.48074325
| 17> C -8.63148247 -0.74814046 -1.89451580
| 18> C -9.11238802 -0.47703834 -3.18466644
| 19> C -8.24002929 0.13803925 -4.07877885
| 20> C -7.18343115 -0.85648706 -0.10234805
| 21> C -8.43227302 -1.45957425 0.23386960
| 22> N -9.28913107 -1.36826572 -0.84653021
| 23> C -8.68545399 -2.05830413 1.47665022
| 24> C -7.64795758 -2.06685499 2.40666404
| 25> C -6.41016040 -1.48525814 2.10648914
| 26> C -6.14827645 -0.85682497 0.87338632
| 27> H -5.62934517 -1.49680940 2.86363251
| 28> H -10.23470402 -1.72940037 -0.87595206
| 29> H -7.79820500 -2.52638054 3.37929327
| 30> H -5.43972540 0.47634535 -2.14152537
| 31> H -10.12564468 -0.74238502 -3.47418627
| 32> H -8.57660281 0.36374496 -5.08716980
| 33> H -6.27103323 0.94487171 -4.41927605
| 34> S -0.13375600 -0.17855521 2.03404561
| 35> C 1.22918489 0.85077575 1.54169181
| 36> N 0.89060953 1.77047473 0.64681279
| 37> N -0.42513166 1.73590838 0.29033053
| 38> C -1.11493680 0.78776119 0.90980059
| 39> C -2.52693666 0.53630044 0.71123427
| 40> N -3.30169038 1.23215975 -0.10984492
| 41> N -4.59802076 0.80240580 -0.12442807
| 42> C -4.84032626 -0.22623297 0.67345371
| 43> S -3.38816339 -0.75475110 1.56530912
| 44> C 2.58112141 0.73980051 2.06272722
| 45> C 2.94701087 -0.17447137 2.99546526
| 46> S 4.56685823 -0.36673921 3.69504278
| 47> C 5.63260544 0.23014714 2.39178303
| 48> C 5.28127398 1.15057793 1.45923803
| 49> S 3.69783480 1.96603621 1.35572722
| 50> S 7.25545608 -0.50097670 2.26176581
| 51> C 7.75146900 0.44349172 0.82520587
| 52> S 6.48384129 1.54069548 0.20154865
| 53> C 8.97970096 0.33413343 0.25758722
| 54> S 10.24631925 -0.76301037 0.88229692
| 55> C 11.44752645 -0.37467497 -0.37940870
| 56> C 11.09890830 0.54764907 -1.31115799
| 57> S 9.47551741 1.27694987 -1.17871881
| 58> S 13.04275777 -1.17132710 -0.27753078
| 59> C 14.12802711 0.09039423 -0.93323848
| 60> C 13.78339069 1.00195855 -1.85432420
| 61> S 12.16921946 1.13988930 -2.61238783
| 62> H 14.50590819 1.74405153 -2.18894070
| 63> H 2.20306944 -0.87277006 3.37922861
| 64> H -9.64951515 -2.50657003 1.69969194
| 65> H 15.13249223 0.08651696 -0.51403089
| 66> *
| 67> $new_job
| 68> #
| 69> !wB97X-D3 def2-TZVP def2/J RIJCOSX Grid5 FinalGrid6 TightSCF
| 70> %pal
| 71>  nprocs 24
| 72> end
| 73> %elprop
| 74>    dipole     true
| 75>    quadrupole true
| 76> end
| 77> %tddft
| 78>   Mode sTDDFT
| 79>   nroots 2
| 80>   Ethresh 10.0
| 81>   maxcore 5000
| 82> end
| 83> * xyz 0 1
| 84> C -6.92803581 0.46914466 -3.69643866
| 85> C -6.45553428 0.20533464 -2.41362994
| 86> C -7.31241190 -0.40985607 -1.48074325
| 87> C -8.63148247 -0.74814046 -1.89451580
| 88> C -9.11238802 -0.47703834 -3.18466644
| 89> C -8.24002929 0.13803925 -4.07877885
| 90> C -7.18343115 -0.85648706 -0.10234805
| 91> C -8.43227302 -1.45957425 0.23386960
| 92> N -9.28913107 -1.36826572 -0.84653021
| 93> C -8.68545399 -2.05830413 1.47665022
| 94> C -7.64795758 -2.06685499 2.40666404
| 95> C -6.41016040 -1.48525814 2.10648914
| 96> C -6.14827645 -0.85682497 0.87338632
| 97> H -5.62934517 -1.49680940 2.86363251
| 98> H -10.23470402 -1.72940037 -0.87595206
| 99> H -7.79820500 -2.52638054 3.37929327
|100> H -5.43972540 0.47634535 -2.14152537
|101> H -10.12564468 -0.74238502 -3.47418627
|102> H -8.57660281 0.36374496 -5.08716980
|103> H -6.27103323 0.94487171 -4.41927605
|104> S -0.13375600 -0.17855521 2.03404561
|105> C 1.22918489 0.85077575 1.54169181
|106> N 0.89060953 1.77047473 0.64681279
|107> N -0.42513166 1.73590838 0.29033053
|108> C -1.11493680 0.78776119 0.90980059
|109> C -2.52693666 0.53630044 0.71123427
|110> N -3.30169038 1.23215975 -0.10984492
|111> N -4.59802076 0.80240580 -0.12442807
|112> C -4.84032626 -0.22623297 0.67345371
|113> S -3.38816339 -0.75475110 1.56530912
|114> C 2.58112141 0.73980051 2.06272722
|115> C 2.94701087 -0.17447137 2.99546526
|116> S 4.56685823 -0.36673921 3.69504278
|117> C 5.63260544 0.23014714 2.39178303
|118> C 5.28127398 1.15057793 1.45923803
|119> S 3.69783480 1.96603621 1.35572722
|120> S 7.25545608 -0.50097670 2.26176581
|121> C 7.75146900 0.44349172 0.82520587
|122> S 6.48384129 1.54069548 0.20154865
|123> C 8.97970096 0.33413343 0.25758722
|124> S 10.24631925 -0.76301037 0.88229692
|125> C 11.44752645 -0.37467497 -0.37940870
|126> C 11.09890830 0.54764907 -1.31115799
|127> S 9.47551741 1.27694987 -1.17871881
|128> S 13.04275777 -1.17132710 -0.27753078
|129> C 14.12802711 0.09039423 -0.93323848
|130> C 13.78339069 1.00195855 -1.85432420
|131> S 12.16921946 1.13988930 -2.61238783
|132> H 14.50590819 1.74405153 -2.18894070
|133> H 2.20306944 -0.87277006 3.37922861
|134> H -9.64951515 -2.50657003 1.69969194
|135> H 15.13249223 0.08651696 -0.51403089
|136> *
|137>
|138>                          ****END OF INPUT****
 Total Charge           Charge          ....    0
 Multiplicity           Mult            ....    1
 Number of Electrons    NEL             ....  362
Dispersion correction           -0.025093200
FINAL SINGLE POINT ENERGY     -5253.098231007827

CARTESIAN COORDINATES (ANGSTROEM)
---------------------------------
  C     -6.928036    0.469145   -3.696439
  C     -6.455534    0.205335   -2.413630
  C     -7.312412   -0.409856   -1.480743
  C     -8.631482   -0.748140   -1.894516
  C     -9.112388   -0.477038   -3.184666
  C     -8.240029    0.138039   -4.078779
  C     -7.183431   -0.856487   -0.102348
  C     -8.432273   -1.459574    0.233870
  N     -9.289131   -1.368266   -0.846530
  C     -8.685454   -2.058304    1.476650
  C     -7.647958   -2.066855    2.406664
  C     -6.410160   -1.485258    2.106489
  C     -6.148276   -0.856825    0.873386
  H     -5.629345   -1.496809    2.863633
  H    -10.234704   -1.729400   -0.875952
  H     -7.798205   -2.526381    3.379293
  H     -5.439725    0.476345   -2.141525
  H    -10.125645   -0.742385   -3.474186
  H     -8.576603    0.363745   -5.087170
  H     -6.271033    0.944872   -4.419276
  S     -0.133756   -0.178555    2.034046
  C      1.229185    0.850776    1.541692
  N      0.890610    1.770475    0.646813
  N     -0.425132    1.735908    0.290331
  C     -1.114937    0.787761    0.909801
  C     -2.526937    0.536300    0.711234
  N     -3.301690    1.232160   -0.109845
  N     -4.598021    0.802406   -0.124428
  C     -4.840326   -0.226233    0.673454
  S     -3.388163   -0.754751    1.565309
  C      2.581121    0.739801    2.062727
  C      2.947011   -0.174471    2.995465
  S      4.566858   -0.366739    3.695043
  C      5.632605    0.230147    2.391783
  C      5.281274    1.150578    1.459238
  S      3.697835    1.966036    1.355727
  S      7.255456   -0.500977    2.261766
  C      7.751469    0.443492    0.825206
  S      6.483841    1.540695    0.201549
  C      8.979701    0.334133    0.257587
  S     10.246319   -0.763010    0.882297
  C     11.447526   -0.374675   -0.379409
  C     11.098908    0.547649   -1.311158
  S      9.475517    1.276950   -1.178719
  S     13.042758   -1.171327   -0.277531
  C     14.128027    0.090394   -0.933238
  C     13.783391    1.001959   -1.854324
  S     12.169219    1.139889   -2.612388
  H     14.505908    1.744052   -2.188941
  H      2.203069   -0.872770    3.379229
  H     -9.649515   -2.506570    1.699692
  H     15.132492    0.086517   -0.514031

 Multiplicity           Mult            ....    1
 Number of Electrons    NEL             ....  362
 Basis Dimension        Dim             .... 1397

ORBITAL ENERGIES
----------------

  NO   OCC          E(Eh)            E(eV)
   0   2.0000     -89.025166     -2422.4979
   1   2.0000     -89.017239     -2422.2822
   2   2.0000     -89.003643     -2421.9123
   3   2.0000     -89.000157     -2421.8174
   4   2.0000     -88.999443     -2421.7980
   5   2.0000     -88.998020     -2421.7592
   6   2.0000     -88.997739     -2421.7516
   7   2.0000     -88.994013     -2421.6502
   8   2.0000     -88.990928     -2421.5663
   9   2.0000     -88.990792     -2421.5626
  10   2.0000     -14.481825      -394.0705
  11   2.0000     -14.481517      -394.0621
  12   2.0000     -14.478344      -393.9758
  13   2.0000     -14.474876      -393.8814
  14   2.0000     -14.471991      -393.8029
  15   2.0000     -10.393724      -282.8276
  16   2.0000     -10.393309      -282.8163
  17   2.0000     -10.386889      -282.6416
  18   2.0000     -10.384437      -282.5749
  19   2.0000     -10.373048      -282.2650
  20   2.0000     -10.372308      -282.2448
  21   2.0000     -10.369433      -282.1666
  22   2.0000     -10.369231      -282.1611
  23   2.0000     -10.368701      -282.1467
  24   2.0000     -10.367310      -282.1089
  25   2.0000     -10.366582      -282.0890
  26   2.0000     -10.360990      -281.9369
  27   2.0000     -10.341742      -281.4131
  28   2.0000     -10.340915      -281.3906
  29   2.0000     -10.339778      -281.3597
  30   2.0000     -10.329715      -281.0858
  31   2.0000     -10.326986      -281.0116
  32   2.0000     -10.310678      -280.5678
  33   2.0000     -10.304855      -280.4094
  34   2.0000     -10.301724      -280.3242
  35   2.0000     -10.301191      -280.3097
  36   2.0000     -10.292770      -280.0805
  37   2.0000     -10.287421      -279.9350
  38   2.0000     -10.286425      -279.9078
  39   2.0000     -10.280665      -279.7511
  40   2.0000     -10.273501      -279.5562
  41   2.0000      -8.121809      -221.0057
  42   2.0000      -8.113970      -220.7924
  43   2.0000      -8.099658      -220.4029
  44   2.0000      -8.096174      -220.3081
  45   2.0000      -8.095428      -220.2878
  46   2.0000      -8.094060      -220.2506
  47   2.0000      -8.093772      -220.2427
  48   2.0000      -8.089935      -220.1383
  49   2.0000      -8.087104      -220.0613
  50   2.0000      -8.086964      -220.0575
  51   2.0000      -6.074834      -165.3046
  52   2.0000      -6.071134      -165.2039
  53   2.0000      -6.068798      -165.1404
  54   2.0000      -6.066897      -165.0887
  55   2.0000      -6.063222      -164.9887
  56   2.0000      -6.061106      -164.9311
  57   2.0000      -6.053961      -164.7366
  58   2.0000      -6.050469      -164.6416
  59   2.0000      -6.049747      -164.6220
  60   2.0000      -6.049671      -164.6199
  61   2.0000      -6.048352      -164.5840
  62   2.0000      -6.048066      -164.5762
  63   2.0000      -6.046230      -164.5263
  64   2.0000      -6.045453      -164.5051
  65   2.0000      -6.044579      -164.4814
  66   2.0000      -6.044429      -164.4773
  67   2.0000      -6.044097      -164.4682
  68   2.0000      -6.043809      -164.4604
  69   2.0000      -6.041442      -164.3960
  70   2.0000      -6.041302      -164.3922
  71   2.0000      -6.041094      -164.3865
  72   2.0000      -6.040344      -164.3661
  73   2.0000      -6.040147      -164.3608
  74   2.0000      -6.039000      -164.3295
  75   2.0000      -6.038704      -164.3215
  76   2.0000      -6.037170      -164.2798
  77   2.0000      -6.037030      -164.2759
  78   2.0000      -6.034323      -164.2023
  79   2.0000      -6.031912      -164.1367
  80   2.0000      -6.031770      -164.1328
  81   2.0000      -1.168239       -31.7894
  82   2.0000      -1.157259       -31.4906
  83   2.0000      -1.112272       -30.2665
  84   2.0000      -1.036810       -28.2130
  85   2.0000      -1.024573       -27.8800
  86   2.0000      -1.006388       -27.3852
  87   2.0000      -0.996650       -27.1202
  88   2.0000      -0.983566       -26.7642
  89   2.0000      -0.971994       -26.4493
  90   2.0000      -0.967389       -26.3240
  91   2.0000      -0.950460       -25.8633
  92   2.0000      -0.947460       -25.7817
  93   2.0000      -0.930605       -25.3230
  94   2.0000      -0.924540       -25.1580
  95   2.0000      -0.922644       -25.1064
  96   2.0000      -0.915091       -24.9009
  97   2.0000      -0.906502       -24.6672
  98   2.0000      -0.881133       -23.9768
  99   2.0000      -0.876060       -23.8388
 100   2.0000      -0.873799       -23.7773
 101   2.0000      -0.861884       -23.4530
 102   2.0000      -0.850943       -23.1553
 103   2.0000      -0.845514       -23.0076
 104   2.0000      -0.821621       -22.3575
 105   2.0000      -0.798468       -21.7274
 106   2.0000      -0.784338       -21.3429
 107   2.0000      -0.774741       -21.0818
 108   2.0000      -0.756349       -20.5813
 109   2.0000      -0.751492       -20.4491
 110   2.0000      -0.735780       -20.0216
 111   2.0000      -0.728445       -19.8220
 112   2.0000      -0.717598       -19.5268
 113   2.0000      -0.717273       -19.5180
 114   2.0000      -0.699042       -19.0219
 115   2.0000      -0.694264       -18.8919
 116   2.0000      -0.666485       -18.1360
 117   2.0000      -0.657299       -17.8860
 118   2.0000      -0.646761       -17.5993
 119   2.0000      -0.630363       -17.1531
 120   2.0000      -0.627313       -17.0700
 121   2.0000      -0.621335       -16.9074
 122   2.0000      -0.617773       -16.8105
 123   2.0000      -0.607592       -16.5334
 124   2.0000      -0.607267       -16.5246
 125   2.0000      -0.596902       -16.2425
 126   2.0000      -0.587196       -15.9784
 127   2.0000      -0.583446       -15.8764
 128   2.0000      -0.579062       -15.7571
 129   2.0000      -0.568982       -15.4828
 130   2.0000      -0.564692       -15.3661
 131   2.0000      -0.560224       -15.2445
 132   2.0000      -0.556783       -15.1508
 133   2.0000      -0.550098       -14.9689
 134   2.0000      -0.542751       -14.7690
 135   2.0000      -0.539949       -14.6928
 136   2.0000      -0.537661       -14.6305
 137   2.0000      -0.534575       -14.5465
 138   2.0000      -0.530051       -14.4234
 139   2.0000      -0.529591       -14.4109
 140   2.0000      -0.529309       -14.4032
 141   2.0000      -0.523774       -14.2526
 142   2.0000      -0.519429       -14.1344
 143   2.0000      -0.515523       -14.0281
 144   2.0000      -0.507393       -13.8069
 145   2.0000      -0.495712       -13.4890
 146   2.0000      -0.483499       -13.1567
 147   2.0000      -0.479460       -13.0468
 148   2.0000      -0.476242       -12.9592
 149   2.0000      -0.473089       -12.8734
 150   2.0000      -0.467961       -12.7339
 151   2.0000      -0.461448       -12.5566
 152   2.0000      -0.459779       -12.5112
 153   2.0000      -0.454798       -12.3757
 154   2.0000      -0.449918       -12.2429
 155   2.0000      -0.447159       -12.1678
 156   2.0000      -0.444602       -12.0982
 157   2.0000      -0.439447       -11.9580
 158   2.0000      -0.435985       -11.8637
 159   2.0000      -0.430035       -11.7019
 160   2.0000      -0.424801       -11.5594
 161   2.0000      -0.423408       -11.5215
 162   2.0000      -0.419300       -11.4097
 163   2.0000      -0.412959       -11.2372
 164   2.0000      -0.412622       -11.2280
 165   2.0000      -0.409931       -11.1548
 166   2.0000      -0.407503       -11.0887
 167   2.0000      -0.400483       -10.8977
 168   2.0000      -0.388140       -10.5618
 169   2.0000      -0.386512       -10.5175
 170   2.0000      -0.376906       -10.2561
 171   2.0000      -0.369158       -10.0453
 172   2.0000      -0.367643       -10.0041
 173   2.0000      -0.362863        -9.8740
 174   2.0000      -0.354300        -9.6410
 175   2.0000      -0.335960        -9.1419
 176   2.0000      -0.312899        -8.5144
 177   2.0000      -0.304738        -8.2923
 178   2.0000      -0.295780        -8.0486
 179   2.0000      -0.293371        -7.9830
 180   2.0000      -0.258314        -7.0291
 181   0.0000      -0.050107        -1.3635
 182   0.0000      -0.009068        -0.2468
 183   0.0000       0.012848         0.3496
 184   0.0000       0.016270         0.4427
 185   0.0000       0.017560         0.4778

MULLIKEN ATOMIC CHARGES
-----------------------
   0 C :   -0.175514
   1 C :   -0.135312
   2 C :   -0.023892
   3 C :    0.174296
   4 C :   -0.244020
   5 C :   -0.075406
   6 C :   -0.016964
   7 C :    0.189233
   8 N :   -0.301687
   9 C :   -0.222821
  10 C :   -0.103198
  11 C :   -0.268787
  12 C :    0.115640
  13 H :    0.126098
  14 H :    0.238429
  15 H :    0.127620
  16 H :    0.160530
  17 H :    0.114683
  18 H :    0.124173
  19 H :    0.122559
  20 S :   -0.006380
  21 C :    0.188682
  22 N :   -0.115268
  23 N :   -0.145232
  24 C :    0.045226
  25 C :    0.172771
  26 N :   -0.120400
  27 N :   -0.179294
  28 C :    0.183022
  29 S :   -0.001926
  30 C :   -0.151107
  31 C :   -0.130421
  32 S :    0.025516
  33 C :   -0.017162
  34 C :   -0.035581
  35 S :    0.038027
  36 S :    0.011729
  37 C :   -0.001835
  38 S :    0.023045
  39 C :   -0.005350
  40 S :    0.013866
  41 C :   -0.021918
  42 C :   -0.023582
  43 S :    0.016945
  44 S :    0.009320
  45 C :   -0.165596
  46 C :   -0.164621
  47 S :    0.011419
  48 H :    0.166983
  49 H :    0.163593
  50 H :    0.123096
  51 H :    0.166775
Sum of atomic charges:   -0.0000000

LOEWDIN ATOMIC CHARGES
----------------------
   0 C :   -0.155232
   1 C :   -0.090669
   2 C :   -0.078413
   3 C :   -0.143920
   4 C :   -0.135588
   5 C :   -0.136865
   6 C :   -0.026990
   7 C :   -0.142646
   8 N :    0.202417
   9 C :   -0.115525
  10 C :   -0.141509
  11 C :   -0.124426
  12 C :   -0.117510
  13 H :    0.144216
  14 H :    0.194105
  15 H :    0.148116
  16 H :    0.154687
  17 H :    0.142959
  18 H :    0.145228
  19 H :    0.145299
  20 S :    0.695589
  21 C :   -0.440644
  22 N :    0.052530
  23 N :    0.079293
  24 C :   -0.446844
  25 C :   -0.460394
  26 N :    0.076468
  27 N :    0.056902
  28 C :   -0.368901
  29 S :    0.699779
  30 C :   -0.392076
  31 C :   -0.368029
  32 S :    0.627212
  33 C :   -0.638654
  34 C :   -0.636633
  35 S :    0.672108
  36 S :    0.624979
  37 C :   -0.632271
  38 S :    0.635658
  39 C :   -0.631981
  40 S :    0.626698
  41 C :   -0.638165
  42 C :   -0.637926
  43 S :    0.629194
  44 S :    0.600585
  45 C :   -0.412441
  46 C :   -0.412059
  47 S :    0.601918
  48 H :    0.141344
  49 H :    0.141352
  50 H :    0.146459
  51 H :    0.141217

  Mayer bond orders larger than 0.1
B(  0-C ,  1-C ) :   1.5408 B(  0-C ,  5-C ) :   1.3510 B(  0-C , 19-H ) :   0.9857
B(  1-C ,  2-C ) :   1.2600 B(  1-C , 16-H ) :   0.9359 B(  2-C ,  3-C ) :   1.3456
B(  2-C ,  6-C ) :   1.0763 B(  3-C ,  4-C ) :   1.3017 B(  3-C ,  8-N ) :   1.1150
B(  4-C ,  5-C ) :   1.4843 B(  4-C , 17-H ) :   0.9789 B(  5-C , 18-H ) :   0.9805
B(  6-C ,  7-C ) :   1.3089 B(  6-C , 12-C ) :   1.2414 B(  7-C ,  8-N ) :   1.1596
B(  7-C ,  9-C ) :   1.2853 B(  8-N , 14-H ) :   0.9120 B(  9-C , 10-C ) :   1.4675
B(  9-C , 50-H ) :   0.9737 B( 10-C , 11-C ) :   1.4245 B( 10-C , 15-H ) :   0.9818
B( 11-C , 12-C ) :   1.4011 B( 11-C , 13-H ) :   0.9612 B( 12-C , 28-C ) :   0.9415
B( 20-S , 21-C ) :   1.2686 B( 20-S , 24-C ) :   1.2872 B( 20-S , 25-C ) :  -0.1135
B( 21-C , 22-N ) :   1.6796 B( 21-C , 30-C ) :   0.9528 B( 22-N , 23-N ) :   1.1132
B( 23-N , 24-C ) :   1.7267 B( 24-C , 25-C ) :   0.9778 B( 25-C , 26-N ) :   1.6935
B( 25-C , 29-S ) :   1.2595 B( 26-N , 27-N ) :   1.0935 B( 27-N , 28-C ) :   1.6409
B( 28-C , 29-S ) :   1.2704 B( 30-C , 31-C ) :   1.7522 B( 30-C , 35-S ) :   1.1312
B( 31-C , 32-S ) :   1.1184 B( 31-C , 49-H ) :   0.9361 B( 32-S , 33-C ) :   1.0651
B( 33-C , 34-C ) :   1.7212 B( 33-C , 36-S ) :   1.1173 B( 34-C , 35-S ) :   1.0911
B( 34-C , 38-S ) :   1.1289 B( 36-S , 37-C ) :   1.1207 B( 37-C , 38-S ) :   1.1214
B( 37-C , 39-C ) :   1.5616 B( 39-C , 40-S ) :   1.1272 B( 39-C , 43-S ) :   1.1260
B( 40-S , 41-C ) :   1.1174 B( 41-C , 42-C ) :   1.7312 B( 41-C , 44-S ) :   1.0769
B( 42-C , 43-S ) :   1.1197 B( 42-C , 47-S ) :   1.0783 B( 44-S , 45-C ) :   1.0790
B( 45-C , 46-C ) :   1.8899 B( 45-C , 51-H ) :   0.9279 B( 46-C , 47-S ) :   1.0787
B( 46-C , 48-H ) :   0.9276

Dispersion correction           -0.025093200
FINAL SINGLE POINT ENERGY     -5253.098230820665

DIPOLE MOMENT
-------------
                                X             Y             Z
Electronic contribution:     53.38571       5.05571      11.71990
Nuclear contribution   :    -54.22171      -7.01425     -10.53183
                        -----------------------------------------
Total Dipole Moment    :     -0.83600      -1.95855       1.18807
                        -----------------------------------------
Magnitude (a.u.)       :      2.43851
Magnitude (Debye)      :      6.19819

                             ****ORCA TERMINATED NORMALLY****
TOTAL RUN TIME: 0 days 0 hours 19 minutes 58 seconds 234 msec
