                         Program Version 4.0.0 -  RELEASE  -
|  1> #
|  2> !wB97X-D3 def2-TZVP def2/J RIJCOSX Grid5 FinalGrid6 TightSCF
|  3> %pal
|  4>  nprocs 24
|  5> end
|  6> %tddft
|  7>   Mode sTDDFT
|  8>   nroots 2
|  9>   Ethresh 10.0
| 10>   maxcore 5000
| 11>   triplets true
| 12> end
| 13> * xyz 0 1
| 14> C 9.48161473 -1.08570392 3.13582741
| 15> C 8.29317803 -0.96882339 2.45765498
| 16> C 8.27678395 -0.94818910 1.02577539
| 17> C 9.52652765 -1.04131816 0.31133911
| 18> C 10.74302248 -1.16279930 1.05843562
| 19> C 10.71451462 -1.18513904 2.43103824
| 20> N 7.09496941 -0.84083783 0.36876407
| 21> C 7.12458889 -0.83078383 -0.98400136
| 22> C 8.38385063 -0.89047854 -1.69697124
| 23> N 9.56661010 -0.99991484 -1.04277552
| 24> C 8.38289460 -0.82538466 -3.12706479
| 25> C 7.19660603 -0.70095924 -3.80822895
| 26> C 5.95951150 -0.65163448 -3.11681173
| 27> C 5.88827754 -0.72620394 -1.73416895
| 28> H 5.04328622 -0.57665693 -3.69674194
| 29> H 7.19327903 -0.64914392 -4.89415305
| 30> H 9.32943332 -0.87425606 -3.65855006
| 31> H 11.63910425 -1.27766004 2.99539911
| 32> H 7.35179215 -0.89465745 2.99666952
| 33> H 9.49136050 -1.10388563 4.22275195
| 34> S 0.63116319 1.38682878 -2.52747702
| 35> C 0.96956596 0.38916082 -1.11484019
| 36> C -0.16771175 0.24179689 -0.34597257
| 37> C -1.31798685 0.92140168 -0.86565697
| 38> C -1.03867027 1.57823367 -2.04855346
| 39> C 2.28220422 -0.16029016 -0.85827135
| 40> C 3.42264272 -0.04961523 -1.62695380
| 41> C 4.57329244 -0.70106969 -1.06412627
| 42> C 4.28326432 -1.31725162 0.14013717
| 43> S 2.61201726 -1.10469934 0.59495827
| 44> H 3.44471601 0.50875410 -2.55750935
| 45> H -0.18025839 -0.35853817 0.55711430
| 46> H 4.96100695 -1.89997548 0.74971636
| 47> H -1.72612330 2.17213720 -2.63629162
| 48> C -2.64210107 0.91836106 -0.19135310
| 49> C -2.71091629 0.95996026 1.22287521
| 50> C -3.96825096 0.90380880 1.87946006
| 51> C -5.14486214 0.81131637 1.11716968
| 52> C -5.09420283 0.78878593 -0.28511629
| 53> C -3.83659693 0.80450712 -0.94296077
| 54> N -6.30699654 0.63357791 -1.01533306
| 55> C -6.69380457 1.49865065 -1.89598498
| 56> C -7.94656222 1.22484765 -2.69004449
| 57> N -3.77953366 0.79479577 -2.36706924
| 58> C -4.18217542 -0.22134001 -3.05773516
| 59> C -4.67872424 -1.51693679 -2.45132735
| 60> N -1.53565983 1.19567523 1.97896712
| 61> C -1.13042457 0.41996689 2.92912782
| 62> C -1.73747483 -0.92798210 3.26986719
| 63> N -4.01871050 1.08665100 3.28613073
| 64> C -4.69253537 0.31459762 4.07458767
| 65> C -5.42315424 -0.94648986 3.64911698
| 66> C -5.97778080 2.79861451 -2.19430419
| 67> C -4.16841993 -0.13712935 -4.56270239
| 68> C 0.09134699 0.81091776 3.72336136
| 69> C -4.74085713 0.63760165 5.54817857
| 70> H -5.27665467 2.66265271 -3.01922368
| 71> H -5.40616203 3.13367001 -1.33238092
| 72> H -6.68405955 3.57528567 -2.48117221
| 73> H -7.72876804 1.23084087 -3.75842649
| 74> H -8.37681567 0.26193215 -2.43005558
| 75> H -8.69385516 1.99877290 -2.51420821
| 76> H -4.29238383 -0.16602384 6.13363438
| 77> H -4.21180745 1.56074309 5.76503766
| 78> H -5.77201561 0.73893592 5.88690469
| 79> H -6.49377240 -0.76101194 3.56104413
| 80> H -5.29145199 -1.73013191 4.39347007
| 81> H -5.06427692 -1.30718044 2.68848040
| 82> H -0.95719776 -1.68563876 3.33707422
| 83> H -2.23945439 -0.89253305 4.23680847
| 84> H -2.46290130 -1.23568584 2.52118719
| 85> H -0.12098900 0.79683907 4.79218755
| 86> H 0.43662432 1.80309404 3.44892240
| 87> H 0.90273439 0.10255230 3.54936737
| 88> H -5.16581424 -0.31825610 -4.96415722
| 89> H -3.51206820 -0.89747205 -4.98609508
| 90> H -3.83069409 0.83872124 -4.89998166
| 91> H -4.17009962 -1.72287532 -1.51219900
| 92> H -4.52976054 -2.35313562 -3.13083039
| 93> H -5.74551547 -1.44247028 -2.23373764
| 94> H 11.68585222 -1.23693778 0.52224058
| 95> H -6.11042410 0.82021174 1.61353632
| 96> *
| 97> $new_job
| 98> #
| 99> !wB97X-D3 def2-TZVP def2/J RIJCOSX Grid5 FinalGrid6 TightSCF
|100> %pal
|101>  nprocs 24
|102> end
|103> %elprop
|104>    dipole     true
|105>    quadrupole true
|106> end
|107> %tddft
|108>   Mode sTDDFT
|109>   nroots 2
|110>   Ethresh 10.0
|111>   maxcore 5000
|112> end
|113> * xyz 0 1
|114> C 9.48161473 -1.08570392 3.13582741
|115> C 8.29317803 -0.96882339 2.45765498
|116> C 8.27678395 -0.94818910 1.02577539
|117> C 9.52652765 -1.04131816 0.31133911
|118> C 10.74302248 -1.16279930 1.05843562
|119> C 10.71451462 -1.18513904 2.43103824
|120> N 7.09496941 -0.84083783 0.36876407
|121> C 7.12458889 -0.83078383 -0.98400136
|122> C 8.38385063 -0.89047854 -1.69697124
|123> N 9.56661010 -0.99991484 -1.04277552
|124> C 8.38289460 -0.82538466 -3.12706479
|125> C 7.19660603 -0.70095924 -3.80822895
|126> C 5.95951150 -0.65163448 -3.11681173
|127> C 5.88827754 -0.72620394 -1.73416895
|128> H 5.04328622 -0.57665693 -3.69674194
|129> H 7.19327903 -0.64914392 -4.89415305
|130> H 9.32943332 -0.87425606 -3.65855006
|131> H 11.63910425 -1.27766004 2.99539911
|132> H 7.35179215 -0.89465745 2.99666952
|133> H 9.49136050 -1.10388563 4.22275195
|134> S 0.63116319 1.38682878 -2.52747702
|135> C 0.96956596 0.38916082 -1.11484019
|136> C -0.16771175 0.24179689 -0.34597257
|137> C -1.31798685 0.92140168 -0.86565697
|138> C -1.03867027 1.57823367 -2.04855346
|139> C 2.28220422 -0.16029016 -0.85827135
|140> C 3.42264272 -0.04961523 -1.62695380
|141> C 4.57329244 -0.70106969 -1.06412627
|142> C 4.28326432 -1.31725162 0.14013717
|143> S 2.61201726 -1.10469934 0.59495827
|144> H 3.44471601 0.50875410 -2.55750935
|145> H -0.18025839 -0.35853817 0.55711430
|146> H 4.96100695 -1.89997548 0.74971636
|147> H -1.72612330 2.17213720 -2.63629162
|148> C -2.64210107 0.91836106 -0.19135310
|149> C -2.71091629 0.95996026 1.22287521
|150> C -3.96825096 0.90380880 1.87946006
|151> C -5.14486214 0.81131637 1.11716968
|152> C -5.09420283 0.78878593 -0.28511629
|153> C -3.83659693 0.80450712 -0.94296077
|154> N -6.30699654 0.63357791 -1.01533306
|155> C -6.69380457 1.49865065 -1.89598498
|156> C -7.94656222 1.22484765 -2.69004449
|157> N -3.77953366 0.79479577 -2.36706924
|158> C -4.18217542 -0.22134001 -3.05773516
|159> C -4.67872424 -1.51693679 -2.45132735
|160> N -1.53565983 1.19567523 1.97896712
|161> C -1.13042457 0.41996689 2.92912782
|162> C -1.73747483 -0.92798210 3.26986719
|163> N -4.01871050 1.08665100 3.28613073
|164> C -4.69253537 0.31459762 4.07458767
|165> C -5.42315424 -0.94648986 3.64911698
|166> C -5.97778080 2.79861451 -2.19430419
|167> C -4.16841993 -0.13712935 -4.56270239
|168> C 0.09134699 0.81091776 3.72336136
|169> C -4.74085713 0.63760165 5.54817857
|170> H -5.27665467 2.66265271 -3.01922368
|171> H -5.40616203 3.13367001 -1.33238092
|172> H -6.68405955 3.57528567 -2.48117221
|173> H -7.72876804 1.23084087 -3.75842649
|174> H -8.37681567 0.26193215 -2.43005558
|175> H -8.69385516 1.99877290 -2.51420821
|176> H -4.29238383 -0.16602384 6.13363438
|177> H -4.21180745 1.56074309 5.76503766
|178> H -5.77201561 0.73893592 5.88690469
|179> H -6.49377240 -0.76101194 3.56104413
|180> H -5.29145199 -1.73013191 4.39347007
|181> H -5.06427692 -1.30718044 2.68848040
|182> H -0.95719776 -1.68563876 3.33707422
|183> H -2.23945439 -0.89253305 4.23680847
|184> H -2.46290130 -1.23568584 2.52118719
|185> H -0.12098900 0.79683907 4.79218755
|186> H 0.43662432 1.80309404 3.44892240
|187> H 0.90273439 0.10255230 3.54936737
|188> H -5.16581424 -0.31825610 -4.96415722
|189> H -3.51206820 -0.89747205 -4.98609508
|190> H -3.83069409 0.83872124 -4.89998166
|191> H -4.17009962 -1.72287532 -1.51219900
|192> H -4.52976054 -2.35313562 -3.13083039
|193> H -5.74551547 -1.44247028 -2.23373764
|194> H 11.68585222 -1.23693778 0.52224058
|195> H -6.11042410 0.82021174 1.61353632
|196> *
|197>
|198>                          ****END OF INPUT****
 Total Charge           Charge          ....    0
 Multiplicity           Mult            ....    1
 Number of Electrons    NEL             ....  338
Dispersion correction           -0.047472499
FINAL SINGLE POINT ENERGY     -2594.728819006710

CARTESIAN COORDINATES (ANGSTROEM)
---------------------------------
  C      9.481615   -1.085704    3.135827
  C      8.293178   -0.968823    2.457655
  C      8.276784   -0.948189    1.025775
  C      9.526528   -1.041318    0.311339
  C     10.743022   -1.162799    1.058436
  C     10.714515   -1.185139    2.431038
  N      7.094969   -0.840838    0.368764
  C      7.124589   -0.830784   -0.984001
  C      8.383851   -0.890479   -1.696971
  N      9.566610   -0.999915   -1.042776
  C      8.382895   -0.825385   -3.127065
  C      7.196606   -0.700959   -3.808229
  C      5.959511   -0.651634   -3.116812
  C      5.888278   -0.726204   -1.734169
  H      5.043286   -0.576657   -3.696742
  H      7.193279   -0.649144   -4.894153
  H      9.329433   -0.874256   -3.658550
  H     11.639104   -1.277660    2.995399
  H      7.351792   -0.894657    2.996670
  H      9.491361   -1.103886    4.222752
  S      0.631163    1.386829   -2.527477
  C      0.969566    0.389161   -1.114840
  C     -0.167712    0.241797   -0.345973
  C     -1.317987    0.921402   -0.865657
  C     -1.038670    1.578234   -2.048553
  C      2.282204   -0.160290   -0.858271
  C      3.422643   -0.049615   -1.626954
  C      4.573292   -0.701070   -1.064126
  C      4.283264   -1.317252    0.140137
  S      2.612017   -1.104699    0.594958
  H      3.444716    0.508754   -2.557509
  H     -0.180258   -0.358538    0.557114
  H      4.961007   -1.899975    0.749716
  H     -1.726123    2.172137   -2.636292
  C     -2.642101    0.918361   -0.191353
  C     -2.710916    0.959960    1.222875
  C     -3.968251    0.903809    1.879460
  C     -5.144862    0.811316    1.117170
  C     -5.094203    0.788786   -0.285116
  C     -3.836597    0.804507   -0.942961
  N     -6.306997    0.633578   -1.015333
  C     -6.693805    1.498651   -1.895985
  C     -7.946562    1.224848   -2.690044
  N     -3.779534    0.794796   -2.367069
  C     -4.182175   -0.221340   -3.057735
  C     -4.678724   -1.516937   -2.451327
  N     -1.535660    1.195675    1.978967
  C     -1.130425    0.419967    2.929128
  C     -1.737475   -0.927982    3.269867
  N     -4.018711    1.086651    3.286131
  C     -4.692535    0.314598    4.074588
  C     -5.423154   -0.946490    3.649117
  C     -5.977781    2.798615   -2.194304
  C     -4.168420   -0.137129   -4.562702
  C      0.091347    0.810918    3.723361
  C     -4.740857    0.637602    5.548179
  H     -5.276655    2.662653   -3.019224
  H     -5.406162    3.133670   -1.332381
  H     -6.684060    3.575286   -2.481172
  H     -7.728768    1.230841   -3.758426
  H     -8.376816    0.261932   -2.430056
  H     -8.693855    1.998773   -2.514208
  H     -4.292384   -0.166024    6.133634
  H     -4.211807    1.560743    5.765038
  H     -5.772016    0.738936    5.886905
  H     -6.493772   -0.761012    3.561044
  H     -5.291452   -1.730132    4.393470
  H     -5.064277   -1.307180    2.688480
  H     -0.957198   -1.685639    3.337074
  H     -2.239454   -0.892533    4.236808
  H     -2.462901   -1.235686    2.521187
  H     -0.120989    0.796839    4.792188
  H      0.436624    1.803094    3.448922
  H      0.902734    0.102552    3.549367
  H     -5.165814   -0.318256   -4.964157
  H     -3.512068   -0.897472   -4.986095
  H     -3.830694    0.838721   -4.899982
  H     -4.170100   -1.722875   -1.512199
  H     -4.529761   -2.353136   -3.130830
  H     -5.745515   -1.442470   -2.233738
  H     11.685852   -1.236938    0.522241
  H     -6.110424    0.820212    1.613536

 Multiplicity           Mult            ....    1
 Number of Electrons    NEL             ....  338
 Basis Dimension        Dim             .... 1654

ORBITAL ENERGIES
----------------

  NO   OCC          E(Eh)            E(eV)
   0   2.0000     -88.974713     -2421.1250
   1   2.0000     -88.968904     -2420.9670
   2   2.0000     -14.442495      -393.0003
   3   2.0000     -14.442036      -392.9878
   4   2.0000     -14.414266      -392.2321
   5   2.0000     -14.412906      -392.1951
   6   2.0000     -14.412487      -392.1837
   7   2.0000     -14.407883      -392.0584
   8   2.0000     -10.338381      -281.3216
   9   2.0000     -10.337705      -281.3033
  10   2.0000     -10.337429      -281.2957
  11   2.0000     -10.337087      -281.2864
  12   2.0000     -10.335016      -281.2301
  13   2.0000     -10.334947      -281.2282
  14   2.0000     -10.334282      -281.2101
  15   2.0000     -10.332306      -281.1564
  16   2.0000     -10.320706      -280.8407
  17   2.0000     -10.313160      -280.6354
  18   2.0000     -10.310357      -280.5591
  19   2.0000     -10.310164      -280.5538
  20   2.0000     -10.308302      -280.5032
  21   2.0000     -10.307659      -280.4857
  22   2.0000     -10.307351      -280.4773
  23   2.0000     -10.304283      -280.3938
  24   2.0000     -10.299786      -280.2714
  25   2.0000     -10.299295      -280.2581
  26   2.0000     -10.297509      -280.2095
  27   2.0000     -10.297058      -280.1972
  28   2.0000     -10.295990      -280.1681
  29   2.0000     -10.295761      -280.1619
  30   2.0000     -10.295417      -280.1525
  31   2.0000     -10.294675      -280.1324
  32   2.0000     -10.291585      -280.0483
  33   2.0000     -10.289884      -280.0020
  34   2.0000     -10.286325      -279.9051
  35   2.0000     -10.282006      -279.7876
  36   2.0000     -10.279271      -279.7132
  37   2.0000     -10.277536      -279.6660
  38   2.0000     -10.276718      -279.6437
  39   2.0000     -10.276151      -279.6283
  40   2.0000     -10.276094      -279.6267
  41   2.0000     -10.274964      -279.5960
  42   2.0000     -10.274333      -279.5788
  43   2.0000     -10.270008      -279.4611
  44   2.0000     -10.268934      -279.4319
  45   2.0000     -10.266647      -279.3697
  46   2.0000      -8.071125      -219.6265
  47   2.0000      -8.065229      -219.4661
  48   2.0000      -6.024394      -163.9321
  49   2.0000      -6.020316      -163.8211
  50   2.0000      -6.018512      -163.7720
  51   2.0000      -6.018224      -163.7642
  52   2.0000      -6.014421      -163.6607
  53   2.0000      -6.012327      -163.6037
  54   2.0000      -1.097426       -29.8625
  55   2.0000      -1.061695       -28.8902
  56   2.0000      -1.051334       -28.6082
  57   2.0000      -1.028185       -27.9783
  58   2.0000      -1.027332       -27.9551
  59   2.0000      -1.024764       -27.8852
  60   2.0000      -1.003890       -27.3172
  61   2.0000      -0.989530       -26.9265
  62   2.0000      -0.977996       -26.6126
  63   2.0000      -0.957740       -26.0614
  64   2.0000      -0.950955       -25.8768
  65   2.0000      -0.903159       -24.5762
  66   2.0000      -0.898866       -24.4594
  67   2.0000      -0.895239       -24.3607
  68   2.0000      -0.877322       -23.8731
  69   2.0000      -0.876557       -23.8523
  70   2.0000      -0.871653       -23.7189
  71   2.0000      -0.864882       -23.5346
  72   2.0000      -0.860324       -23.4106
  73   2.0000      -0.848161       -23.0796
  74   2.0000      -0.836124       -22.7521
  75   2.0000      -0.823960       -22.4211
  76   2.0000      -0.820340       -22.3226
  77   2.0000      -0.819151       -22.2902
  78   2.0000      -0.816961       -22.2306
  79   2.0000      -0.814901       -22.1746
  80   2.0000      -0.802205       -21.8291
  81   2.0000      -0.800447       -21.7813
  82   2.0000      -0.793776       -21.5997
  83   2.0000      -0.759160       -20.6578
  84   2.0000      -0.733881       -19.9699
  85   2.0000      -0.726476       -19.7684
  86   2.0000      -0.721880       -19.6433
  87   2.0000      -0.716615       -19.5001
  88   2.0000      -0.699288       -19.0286
  89   2.0000      -0.678774       -18.4704
  90   2.0000      -0.671650       -18.2765
  91   2.0000      -0.666716       -18.1423
  92   2.0000      -0.663733       -18.0611
  93   2.0000      -0.649460       -17.6727
  94   2.0000      -0.632233       -17.2039
  95   2.0000      -0.630663       -17.1612
  96   2.0000      -0.627913       -17.0864
  97   2.0000      -0.609365       -16.5817
  98   2.0000      -0.599838       -16.3224
  99   2.0000      -0.598004       -16.2725
 100   2.0000      -0.593450       -16.1486
 101   2.0000      -0.589017       -16.0280
 102   2.0000      -0.585803       -15.9405
 103   2.0000      -0.582915       -15.8619
 104   2.0000      -0.576160       -15.6781
 105   2.0000      -0.572561       -15.5802
 106   2.0000      -0.567297       -15.4369
 107   2.0000      -0.559976       -15.2377
 108   2.0000      -0.558386       -15.1945
 109   2.0000      -0.553369       -15.0579
 110   2.0000      -0.552655       -15.0385
 111   2.0000      -0.550141       -14.9701
 112   2.0000      -0.546349       -14.8669
 113   2.0000      -0.542502       -14.7622
 114   2.0000      -0.539786       -14.6883
 115   2.0000      -0.537813       -14.6346
 116   2.0000      -0.536240       -14.5918
 117   2.0000      -0.533601       -14.5200
 118   2.0000      -0.532750       -14.4969
 119   2.0000      -0.526197       -14.3186
 120   2.0000      -0.510197       -13.8832
 121   2.0000      -0.507924       -13.8213
 122   2.0000      -0.503840       -13.7102
 123   2.0000      -0.500700       -13.6247
 124   2.0000      -0.498210       -13.5570
 125   2.0000      -0.495638       -13.4870
 126   2.0000      -0.494685       -13.4611
 127   2.0000      -0.494244       -13.4491
 128   2.0000      -0.490955       -13.3596
 129   2.0000      -0.490374       -13.3438
 130   2.0000      -0.489762       -13.3271
 131   2.0000      -0.486934       -13.2501
 132   2.0000      -0.484276       -13.1778
 133   2.0000      -0.479511       -13.0482
 134   2.0000      -0.479112       -13.0373
 135   2.0000      -0.477500       -12.9934
 136   2.0000      -0.474521       -12.9124
 137   2.0000      -0.466641       -12.6979
 138   2.0000      -0.466049       -12.6818
 139   2.0000      -0.463685       -12.6175
 140   2.0000      -0.462232       -12.5780
 141   2.0000      -0.461243       -12.5511
 142   2.0000      -0.459021       -12.4906
 143   2.0000      -0.456632       -12.4256
 144   2.0000      -0.453149       -12.3308
 145   2.0000      -0.450723       -12.2648
 146   2.0000      -0.445934       -12.1345
 147   2.0000      -0.435085       -11.8393
 148   2.0000      -0.426342       -11.6014
 149   2.0000      -0.417131       -11.3507
 150   2.0000      -0.411041       -11.1850
 151   2.0000      -0.410122       -11.1600
 152   2.0000      -0.403309       -10.9746
 153   2.0000      -0.383509       -10.4358
 154   2.0000      -0.381409       -10.3787
 155   2.0000      -0.376180       -10.2364
 156   2.0000      -0.370534       -10.0827
 157   2.0000      -0.366029        -9.9602
 158   2.0000      -0.356560        -9.7025
 159   2.0000      -0.352197        -9.5838
 160   2.0000      -0.345064        -9.3897
 161   2.0000      -0.337347        -9.1797
 162   2.0000      -0.336225        -9.1492
 163   2.0000      -0.334047        -9.0899
 164   2.0000      -0.328864        -8.9488
 165   2.0000      -0.301600        -8.2070
 166   2.0000      -0.287842        -7.8326
 167   2.0000      -0.267494        -7.2789
 168   2.0000      -0.264509        -7.1977
 169   0.0000      -0.038686        -1.0527
 170   0.0000       0.018080         0.4920
 171   0.0000       0.033464         0.9106
 172   0.0000       0.037594         1.0230
 173   0.0000       0.046799         1.2735

MULLIKEN ATOMIC CHARGES
-----------------------
   0 C :   -0.065314
   1 C :   -0.283424
   2 C :    0.204838
   3 C :    0.189092
   4 C :   -0.255608
   5 C :   -0.073108
   6 N :   -0.313846
   7 C :    0.190742
   8 C :    0.185227
   9 N :   -0.245070
  10 C :   -0.263664
  11 C :   -0.074032
  12 C :   -0.164640
  13 C :    0.013216
  14 H :    0.136343
  15 H :    0.127675
  16 H :    0.128807
  17 H :    0.131715
  18 H :    0.136062
  19 H :    0.131131
  20 S :    0.034964
  21 C :    0.039190
  22 C :   -0.252628
  23 C :   -0.001506
  24 C :   -0.209822
  25 C :    0.014368
  26 C :   -0.253134
  27 C :    0.077065
  28 C :   -0.204580
  29 S :    0.024320
  30 H :    0.155053
  31 H :    0.163507
  32 H :    0.169270
  33 H :    0.170782
  34 C :    0.173962
  35 C :    0.044509
  36 C :    0.163724
  37 C :   -0.428139
  38 C :    0.224377
  39 C :    0.057723
  40 N :   -0.320339
  41 C :    0.143842
  42 C :   -0.363335
  43 N :   -0.372119
  44 C :    0.187136
  45 C :   -0.355609
  46 N :   -0.248341
  47 C :    0.100335
  48 C :   -0.367594
  49 N :   -0.244463
  50 C :    0.080923
  51 C :   -0.376446
  52 C :   -0.346747
  53 C :   -0.381975
  54 C :   -0.335717
  55 C :   -0.336529
  56 H :    0.145304
  57 H :    0.154674
  58 H :    0.127205
  59 H :    0.124122
  60 H :    0.133187
  61 H :    0.134989
  62 H :    0.118428
  63 H :    0.142037
  64 H :    0.128190
  65 H :    0.148371
  66 H :    0.132317
  67 H :    0.158589
  68 H :    0.140308
  69 H :    0.140828
  70 H :    0.139939
  71 H :    0.123448
  72 H :    0.142897
  73 H :    0.122454
  74 H :    0.129819
  75 H :    0.141623
  76 H :    0.132428
  77 H :    0.146947
  78 H :    0.126951
  79 H :    0.155154
  80 H :    0.131630
  81 H :    0.115992
Sum of atomic charges:   -0.0000000

LOEWDIN ATOMIC CHARGES
----------------------
   0 C :   -0.133050
   1 C :   -0.099870
   2 C :   -0.167405
   3 C :   -0.167921
   4 C :   -0.097827
   5 C :   -0.133171
   6 N :    0.207458
   7 C :   -0.121640
   8 C :   -0.164396
   9 N :    0.200075
  10 C :   -0.103008
  11 C :   -0.131517
  12 C :   -0.092491
  13 C :   -0.064281
  14 H :    0.152679
  15 H :    0.148811
  16 H :    0.152384
  17 H :    0.147832
  18 H :    0.152589
  19 H :    0.147713
  20 S :    0.697644
  21 C :   -0.359094
  22 C :   -0.124039
  23 C :   -0.155140
  24 C :   -0.333919
  25 C :   -0.348367
  26 C :   -0.137977
  27 C :   -0.165291
  28 C :   -0.337980
  29 S :    0.704973
  30 H :    0.145218
  31 H :    0.147803
  32 H :    0.135302
  33 H :    0.135755
  34 C :   -0.053801
  35 C :   -0.140320
  36 C :   -0.188846
  37 C :   -0.094905
  38 C :   -0.189486
  39 C :   -0.144679
  40 N :    0.151144
  41 C :   -0.259378
  42 C :   -0.263608
  43 N :    0.161135
  44 C :   -0.253430
  45 C :   -0.260016
  46 N :    0.184620
  47 C :   -0.265092
  48 C :   -0.264477
  49 N :    0.173097
  50 C :   -0.273471
  51 C :   -0.271712
  52 C :   -0.262655
  53 C :   -0.262502
  54 C :   -0.259377
  55 C :   -0.264268
  56 H :    0.138087
  57 H :    0.138718
  58 H :    0.125391
  59 H :    0.129768
  60 H :    0.128040
  61 H :    0.131042
  62 H :    0.127151
  63 H :    0.131051
  64 H :    0.130312
  65 H :    0.134454
  66 H :    0.128509
  67 H :    0.134349
  68 H :    0.129761
  69 H :    0.134309
  70 H :    0.132694
  71 H :    0.129031
  72 H :    0.132697
  73 H :    0.128578
  74 H :    0.130617
  75 H :    0.133351
  76 H :    0.127984
  77 H :    0.137433
  78 H :    0.124990
  79 H :    0.140339
  80 H :    0.152992
  81 H :    0.152526

  Mayer bond orders larger than 0.1
B(  0-C ,  1-C ) :   1.6144 B(  0-C ,  5-C ) :   1.1906 B(  0-C , 19-H ) :   0.9798
B(  1-C ,  2-C ) :   1.1837 B(  1-C , 18-H ) :   0.9698 B(  2-C ,  3-C ) :   1.1708
B(  2-C ,  6-N ) :   1.4047 B(  3-C ,  4-C ) :   1.2010 B(  3-C ,  9-N ) :   1.4054
B(  4-C ,  5-C ) :   1.6218 B(  4-C , 80-H ) :   0.9735 B(  5-C , 17-H ) :   0.9806
B(  6-N ,  7-C ) :   1.3623 B(  7-C ,  8-C ) :   1.1970 B(  7-C , 13-C ) :   1.1182
B(  8-C ,  9-N ) :   1.4297 B(  8-C , 10-C ) :   1.1989 B( 10-C , 11-C ) :   1.5943
B( 10-C , 16-H ) :   0.9806 B( 11-C , 12-C ) :   1.2300 B( 11-C , 15-H ) :   0.9863
B( 12-C , 13-C ) :   1.5717 B( 12-C , 14-H ) :   0.9553 B( 13-C , 27-C ) :   0.9133
B( 20-S , 21-C ) :   1.2530 B( 20-S , 24-C ) :   1.2975 B( 21-C , 22-C ) :   1.5677
B( 21-C , 25-C ) :   0.9142 B( 22-C , 23-C ) :   1.2932 B( 22-C , 31-H ) :   0.9022
B( 23-C , 24-C ) :   1.6527 B( 23-C , 34-C ) :   0.8107 B( 24-C , 33-H ) :   0.9156
B( 25-C , 26-C ) :   1.6074 B( 25-C , 29-S ) :   1.2651 B( 26-C , 27-C ) :   1.2497
B( 26-C , 30-H ) :   0.8885 B( 27-C , 28-C ) :   1.6566 B( 28-C , 29-S ) :   1.2931
B( 28-C , 32-H ) :   0.9219 B( 34-C , 35-C ) :   1.2782 B( 34-C , 39-C ) :   1.2771
B( 35-C , 36-C ) :   1.3440 B( 35-C , 46-N ) :   1.1107 B( 36-C , 37-C ) :   1.3092
B( 36-C , 49-N ) :   1.0356 B( 37-C , 38-C ) :   1.3736 B( 37-C , 81-H ) :   1.0077
B( 38-C , 39-C ) :   1.4061 B( 38-C , 40-N ) :   0.9053 B( 39-C , 43-N ) :   0.8837
B( 40-N , 41-C ) :   1.8767 B( 41-C , 42-C ) :   0.9505 B( 41-C , 52-C ) :   0.9686
B( 42-C , 59-H ) :   0.9600 B( 42-C , 60-H ) :   0.9883 B( 42-C , 61-H ) :   0.9647
B( 43-N , 44-C ) :   1.8158 B( 44-C , 45-C ) :   0.9612 B( 44-C , 53-C ) :   0.9543
B( 45-C , 77-H ) :   0.9754 B( 45-C , 78-H ) :   0.9654 B( 45-C , 79-H ) :   0.9385
B( 46-N , 47-C ) :   1.8943 B( 47-C , 48-C ) :   0.9499 B( 47-C , 54-C ) :   0.9574
B( 48-C , 68-H ) :   0.9529 B( 48-C , 69-H ) :   0.9638 B( 48-C , 70-H ) :   0.9766
B( 49-N , 50-C ) :   1.8971 B( 50-C , 51-C ) :   0.9488 B( 50-C , 55-C ) :   0.9696
B( 51-C , 65-H ) :   0.9629 B( 51-C , 66-H ) :   0.9586 B( 51-C , 67-H ) :   0.9750
B( 52-C , 56-H ) :   0.9397 B( 52-C , 57-H ) :   0.9747 B( 52-C , 58-H ) :   0.9607
B( 53-C , 74-H ) :   0.9632 B( 53-C , 75-H ) :   0.9633 B( 53-C , 76-H ) :   0.9893
B( 54-C , 71-H ) :   0.9664 B( 54-C , 72-H ) :   0.9886 B( 54-C , 73-H ) :   0.9539
B( 55-C , 62-H ) :   0.9583 B( 55-C , 63-H ) :   0.9861 B( 55-C , 64-H ) :   0.9625

Dispersion correction           -0.047472499
FINAL SINGLE POINT ENERGY     -2594.728818921688

DIPOLE MOMENT
-------------
                                X             Y             Z
Electronic contribution:     67.11649       1.15883     -12.06321
Nuclear contribution   :    -68.21601      -2.28162      12.33590
                        -----------------------------------------
Total Dipole Moment    :     -1.09952      -1.12278       0.27269
                        -----------------------------------------
Magnitude (a.u.)       :      1.59497
Magnitude (Debye)      :      4.05410

                             ****ORCA TERMINATED NORMALLY****
TOTAL RUN TIME: 0 days 0 hours 57 minutes 10 seconds 833 msec
