                         Program Version 4.0.0 -  RELEASE  -
|  1> #
|  2> !wB97X-D3 def2-TZVP def2/J RIJCOSX Grid5 FinalGrid6 TightSCF
|  3> %pal
|  4>  nprocs 24
|  5> end
|  6> %tddft
|  7>   Mode sTDDFT
|  8>   nroots 2
|  9>   Ethresh 10.0
| 10>   maxcore 5000
| 11>   triplets true
| 12> end
| 13> * xyz 0 1
| 14> C 5.47712665 1.62010480 -1.95502321
| 15> C 4.49961971 1.09406537 -1.11338684
| 16> C 4.85257629 0.07774871 -0.20654446
| 17> C 6.19236471 -0.40268199 -0.21030482
| 18> C 7.18075549 0.13170438 -1.05092520
| 19> C 6.80339507 1.15465194 -1.91799366
| 20> C 4.13030765 -0.71972340 0.77121489
| 21> C 5.06491362 -1.66715322 1.27803204
| 22> N 6.30089896 -1.44229267 0.69735508
| 23> C 4.71152946 -2.66563092 2.19895402
| 24> C 3.37814129 -2.71856060 2.60176657
| 25> C 2.44029867 -1.79011894 2.12913000
| 26> C 2.78945369 -0.76061110 1.23575628
| 27> H 1.41529749 -1.84614506 2.48755535
| 28> H 7.13672201 -1.98714101 0.87015294
| 29> H 3.05935593 -3.48475539 3.30322925
| 30> H 3.47863753 1.45874056 -1.17774994
| 31> H 8.19961766 -0.24600325 -1.03287610
| 32> H 7.54165953 1.59167044 -2.58506977
| 33> H 5.21098289 2.40515970 -2.65742398
| 34> N -2.61431485 1.06585081 -0.04775055
| 35> C -1.60368354 2.00157893 0.03870165
| 36> C -1.99929295 3.31452265 -0.18789868
| 37> S -3.70167715 3.38109125 -0.52078973
| 38> C -3.79218929 1.60632088 -0.33555209
| 39> C -0.25575324 1.55697951 0.34781337
| 40> S 0.08988011 -0.16084701 0.60822535
| 41> C 1.78469153 0.24308317 0.86306277
| 42> C 1.94244655 1.61422637 0.75571683
| 43> N 0.80879457 2.33855605 0.46677211
| 44> H -1.36087979 4.18815860 -0.16531709
| 45> H 2.88274112 2.13556059 0.92084855
| 46> C -5.29243782 -3.26548594 -0.09441443
| 47> N -6.41646476 -2.64028970 -0.37187670
| 48> C -6.36398374 -1.25698633 -0.51119025
| 49> C -5.10042271 -0.54583792 -0.35088516
| 50> N -3.95129036 -1.25895555 -0.06024814
| 51> C -4.04601997 -2.56669100 0.06254660
| 52> C -7.54734685 -0.58092136 -0.80590504
| 53> C -7.53099539 0.83461215 -0.95591490
| 54> C -6.26023698 1.56824354 -0.79644536
| 55> C -5.03302321 0.86403114 -0.48943394
| 56> N -6.30510037 2.88524916 -0.94728093
| 57> S -8.08733230 3.31717405 -1.32909693
| 58> N -8.62039025 1.54904494 -1.23796550
| 59> H -3.12937370 -3.12471037 0.29256586
| 60> H -5.32803242 -4.35700615 0.01650981
| 61> H 5.44400374 -3.37704798 2.56950732
| 62> H -8.47617031 -1.13233279 -0.92045325
| 63> *
| 64> $new_job
| 65> #
| 66> !wB97X-D3 def2-TZVP def2/J RIJCOSX Grid5 FinalGrid6 TightSCF
| 67> %pal
| 68>  nprocs 24
| 69> end
| 70> %elprop
| 71>    dipole     true
| 72>    quadrupole true
| 73> end
| 74> %tddft
| 75>   Mode sTDDFT
| 76>   nroots 2
| 77>   Ethresh 10.0
| 78>   maxcore 5000
| 79> end
| 80> * xyz 0 1
| 81> C 5.47712665 1.62010480 -1.95502321
| 82> C 4.49961971 1.09406537 -1.11338684
| 83> C 4.85257629 0.07774871 -0.20654446
| 84> C 6.19236471 -0.40268199 -0.21030482
| 85> C 7.18075549 0.13170438 -1.05092520
| 86> C 6.80339507 1.15465194 -1.91799366
| 87> C 4.13030765 -0.71972340 0.77121489
| 88> C 5.06491362 -1.66715322 1.27803204
| 89> N 6.30089896 -1.44229267 0.69735508
| 90> C 4.71152946 -2.66563092 2.19895402
| 91> C 3.37814129 -2.71856060 2.60176657
| 92> C 2.44029867 -1.79011894 2.12913000
| 93> C 2.78945369 -0.76061110 1.23575628
| 94> H 1.41529749 -1.84614506 2.48755535
| 95> H 7.13672201 -1.98714101 0.87015294
| 96> H 3.05935593 -3.48475539 3.30322925
| 97> H 3.47863753 1.45874056 -1.17774994
| 98> H 8.19961766 -0.24600325 -1.03287610
| 99> H 7.54165953 1.59167044 -2.58506977
|100> H 5.21098289 2.40515970 -2.65742398
|101> N -2.61431485 1.06585081 -0.04775055
|102> C -1.60368354 2.00157893 0.03870165
|103> C -1.99929295 3.31452265 -0.18789868
|104> S -3.70167715 3.38109125 -0.52078973
|105> C -3.79218929 1.60632088 -0.33555209
|106> C -0.25575324 1.55697951 0.34781337
|107> S 0.08988011 -0.16084701 0.60822535
|108> C 1.78469153 0.24308317 0.86306277
|109> C 1.94244655 1.61422637 0.75571683
|110> N 0.80879457 2.33855605 0.46677211
|111> H -1.36087979 4.18815860 -0.16531709
|112> H 2.88274112 2.13556059 0.92084855
|113> C -5.29243782 -3.26548594 -0.09441443
|114> N -6.41646476 -2.64028970 -0.37187670
|115> C -6.36398374 -1.25698633 -0.51119025
|116> C -5.10042271 -0.54583792 -0.35088516
|117> N -3.95129036 -1.25895555 -0.06024814
|118> C -4.04601997 -2.56669100 0.06254660
|119> C -7.54734685 -0.58092136 -0.80590504
|120> C -7.53099539 0.83461215 -0.95591490
|121> C -6.26023698 1.56824354 -0.79644536
|122> C -5.03302321 0.86403114 -0.48943394
|123> N -6.30510037 2.88524916 -0.94728093
|124> S -8.08733230 3.31717405 -1.32909693
|125> N -8.62039025 1.54904494 -1.23796550
|126> H -3.12937370 -3.12471037 0.29256586
|127> H -5.32803242 -4.35700615 0.01650981
|128> H 5.44400374 -3.37704798 2.56950732
|129> H -8.47617031 -1.13233279 -0.92045325
|130> *
|131>
|132>                          ****END OF INPUT****
 Total Charge           Charge          ....    0
 Multiplicity           Mult            ....    1
 Number of Electrons    NEL             ....  266
Dispersion correction           -0.024514793
FINAL SINGLE POINT ENERGY     -2576.475430134969

CARTESIAN COORDINATES (ANGSTROEM)
---------------------------------
  C      5.477127    1.620105   -1.955023
  C      4.499620    1.094065   -1.113387
  C      4.852576    0.077749   -0.206544
  C      6.192365   -0.402682   -0.210305
  C      7.180755    0.131704   -1.050925
  C      6.803395    1.154652   -1.917994
  C      4.130308   -0.719723    0.771215
  C      5.064914   -1.667153    1.278032
  N      6.300899   -1.442293    0.697355
  C      4.711529   -2.665631    2.198954
  C      3.378141   -2.718561    2.601767
  C      2.440299   -1.790119    2.129130
  C      2.789454   -0.760611    1.235756
  H      1.415297   -1.846145    2.487555
  H      7.136722   -1.987141    0.870153
  H      3.059356   -3.484755    3.303229
  H      3.478638    1.458741   -1.177750
  H      8.199618   -0.246003   -1.032876
  H      7.541660    1.591670   -2.585070
  H      5.210983    2.405160   -2.657424
  N     -2.614315    1.065851   -0.047751
  C     -1.603684    2.001579    0.038702
  C     -1.999293    3.314523   -0.187899
  S     -3.701677    3.381091   -0.520790
  C     -3.792189    1.606321   -0.335552
  C     -0.255753    1.556980    0.347813
  S      0.089880   -0.160847    0.608225
  C      1.784692    0.243083    0.863063
  C      1.942447    1.614226    0.755717
  N      0.808795    2.338556    0.466772
  H     -1.360880    4.188159   -0.165317
  H      2.882741    2.135561    0.920849
  C     -5.292438   -3.265486   -0.094414
  N     -6.416465   -2.640290   -0.371877
  C     -6.363984   -1.256986   -0.511190
  C     -5.100423   -0.545838   -0.350885
  N     -3.951290   -1.258956   -0.060248
  C     -4.046020   -2.566691    0.062547
  C     -7.547347   -0.580921   -0.805905
  C     -7.530995    0.834612   -0.955915
  C     -6.260237    1.568244   -0.796445
  C     -5.033023    0.864031   -0.489434
  N     -6.305100    2.885249   -0.947281
  S     -8.087332    3.317174   -1.329097
  N     -8.620390    1.549045   -1.237965
  H     -3.129374   -3.124710    0.292566
  H     -5.328032   -4.357006    0.016510
  H      5.444004   -3.377048    2.569507
  H     -8.476170   -1.132333   -0.920453

 Multiplicity           Mult            ....    1
 Number of Electrons    NEL             ....  266
 Basis Dimension        Dim             .... 1212

ORBITAL ENERGIES
----------------

  NO   OCC          E(Eh)            E(eV)
   0   2.0000     -89.051632     -2423.2181
   1   2.0000     -88.992757     -2421.6160
   2   2.0000     -88.982436     -2421.3352
   3   2.0000     -14.497414      -394.4947
   4   2.0000     -14.494181      -394.4067
   5   2.0000     -14.468047      -393.6956
   6   2.0000     -14.465284      -393.6204
   7   2.0000     -14.456542      -393.3825
   8   2.0000     -14.431790      -392.7090
   9   2.0000     -14.425481      -392.5373
  10   2.0000     -10.366616      -282.0900
  11   2.0000     -10.366282      -282.0809
  12   2.0000     -10.363794      -282.0132
  13   2.0000     -10.362494      -281.9778
  14   2.0000     -10.358284      -281.8633
  15   2.0000     -10.357082      -281.8305
  16   2.0000     -10.356088      -281.8035
  17   2.0000     -10.354059      -281.7483
  18   2.0000     -10.343383      -281.4578
  19   2.0000     -10.330817      -281.1158
  20   2.0000     -10.328847      -281.0622
  21   2.0000     -10.325545      -280.9724
  22   2.0000     -10.323912      -280.9279
  23   2.0000     -10.320732      -280.8414
  24   2.0000     -10.320378      -280.8318
  25   2.0000     -10.310277      -280.5569
  26   2.0000     -10.309197      -280.5275
  27   2.0000     -10.294766      -280.1348
  28   2.0000     -10.289569      -279.9934
  29   2.0000     -10.289496      -279.9914
  30   2.0000     -10.288636      -279.9680
  31   2.0000     -10.286175      -279.9011
  32   2.0000     -10.284347      -279.8513
  33   2.0000     -10.283149      -279.8187
  34   2.0000     -10.281397      -279.7710
  35   2.0000     -10.274692      -279.5886
  36   2.0000      -8.139849      -221.4966
  37   2.0000      -8.088201      -220.0911
  38   2.0000      -8.078572      -219.8291
  39   2.0000      -6.095576      -165.8690
  40   2.0000      -6.089187      -165.6952
  41   2.0000      -6.085469      -165.5940
  42   2.0000      -6.041401      -164.3949
  43   2.0000      -6.037057      -164.2767
  44   2.0000      -6.035618      -164.2375
  45   2.0000      -6.031638      -164.1292
  46   2.0000      -6.027672      -164.0213
  47   2.0000      -6.025882      -163.9726
  48   2.0000      -1.118983       -30.4491
  49   2.0000      -1.104609       -30.0579
  50   2.0000      -1.103545       -30.0290
  51   2.0000      -1.087402       -29.5897
  52   2.0000      -1.067958       -29.0606
  53   2.0000      -1.044908       -28.4334
  54   2.0000      -1.016381       -27.6571
  55   2.0000      -0.979963       -26.6662
  56   2.0000      -0.976561       -26.5736
  57   2.0000      -0.965144       -26.2629
  58   2.0000      -0.920240       -25.0410
  59   2.0000      -0.914810       -24.8932
  60   2.0000      -0.911640       -24.8070
  61   2.0000      -0.898684       -24.4544
  62   2.0000      -0.888874       -24.1875
  63   2.0000      -0.879394       -23.9295
  64   2.0000      -0.866323       -23.5739
  65   2.0000      -0.846598       -23.0371
  66   2.0000      -0.839040       -22.8314
  67   2.0000      -0.824691       -22.4410
  68   2.0000      -0.819513       -22.3001
  69   2.0000      -0.773760       -21.0551
  70   2.0000      -0.763438       -20.7742
  71   2.0000      -0.757372       -20.6091
  72   2.0000      -0.747638       -20.3443
  73   2.0000      -0.726672       -19.7737
  74   2.0000      -0.718994       -19.5648
  75   2.0000      -0.712918       -19.3995
  76   2.0000      -0.707869       -19.2621
  77   2.0000      -0.681661       -18.5489
  78   2.0000      -0.664089       -18.0708
  79   2.0000      -0.658273       -17.9125
  80   2.0000      -0.653703       -17.7882
  81   2.0000      -0.642827       -17.4922
  82   2.0000      -0.635902       -17.3038
  83   2.0000      -0.628107       -17.0917
  84   2.0000      -0.619778       -16.8650
  85   2.0000      -0.611661       -16.6441
  86   2.0000      -0.588327       -16.0092
  87   2.0000      -0.582173       -15.8417
  88   2.0000      -0.579103       -15.7582
  89   2.0000      -0.574767       -15.6402
  90   2.0000      -0.568366       -15.4660
  91   2.0000      -0.562211       -15.2986
  92   2.0000      -0.557581       -15.1725
  93   2.0000      -0.550038       -14.9673
  94   2.0000      -0.546168       -14.8620
  95   2.0000      -0.539203       -14.6725
  96   2.0000      -0.536356       -14.5950
  97   2.0000      -0.533709       -14.5230
  98   2.0000      -0.529628       -14.4119
  99   2.0000      -0.528279       -14.3752
 100   2.0000      -0.522500       -14.2179
 101   2.0000      -0.518333       -14.1046
 102   2.0000      -0.513350       -13.9690
 103   2.0000      -0.504515       -13.7286
 104   2.0000      -0.502497       -13.6736
 105   2.0000      -0.495815       -13.4918
 106   2.0000      -0.477963       -13.0060
 107   2.0000      -0.470068       -12.7912
 108   2.0000      -0.468479       -12.7480
 109   2.0000      -0.464799       -12.6478
 110   2.0000      -0.462561       -12.5869
 111   2.0000      -0.448734       -12.2107
 112   2.0000      -0.442391       -12.0381
 113   2.0000      -0.440713       -11.9924
 114   2.0000      -0.436871       -11.8879
 115   2.0000      -0.433729       -11.8024
 116   2.0000      -0.432510       -11.7692
 117   2.0000      -0.429801       -11.6955
 118   2.0000      -0.424118       -11.5408
 119   2.0000      -0.401100       -10.9145
 120   2.0000      -0.390209       -10.6181
 121   2.0000      -0.384894       -10.4735
 122   2.0000      -0.380881       -10.3643
 123   2.0000      -0.375618       -10.2211
 124   2.0000      -0.368875       -10.0376
 125   2.0000      -0.364398        -9.9158
 126   2.0000      -0.362444        -9.8626
 127   2.0000      -0.346867        -9.4387
 128   2.0000      -0.342377        -9.3166
 129   2.0000      -0.317749        -8.6464
 130   2.0000      -0.299712        -8.1556
 131   2.0000      -0.293642        -7.9904
 132   2.0000      -0.275864        -7.5066
 133   0.0000      -0.092090        -2.5059
 134   0.0000      -0.000105        -0.0029
 135   0.0000       0.004490         0.1222
 136   0.0000       0.009405         0.2559
 137   0.0000       0.017777         0.4837

MULLIKEN ATOMIC CHARGES
-----------------------
   0 C :   -0.153881
   1 C :   -0.221944
   2 C :   -0.054120
   3 C :    0.172449
   4 C :   -0.230405
   5 C :   -0.092099
   6 C :   -0.006599
   7 C :    0.172858
   8 N :   -0.302857
   9 C :   -0.236296
  10 C :   -0.080535
  11 C :   -0.283183
  12 C :    0.200766
  13 H :    0.128887
  14 H :    0.235810
  15 H :    0.121553
  16 H :    0.211034
  17 H :    0.114541
  18 H :    0.121678
  19 H :    0.120094
  20 N :   -0.269103
  21 C :    0.091865
  22 C :   -0.196106
  23 S :    0.114507
  24 C :    0.165734
  25 C :    0.116131
  26 S :    0.050895
  27 C :    0.055209
  28 C :   -0.220471
  29 N :   -0.275677
  30 H :    0.181428
  31 H :    0.187760
  32 C :    0.013235
  33 N :   -0.234468
  34 C :    0.166416
  35 C :    0.049788
  36 N :   -0.207225
  37 C :   -0.031094
  38 C :   -0.291336
  39 C :    0.119020
  40 C :    0.174564
  41 C :    0.023880
  42 N :   -0.293888
  43 S :    0.226627
  44 N :   -0.219533
  45 H :    0.148026
  46 H :    0.147126
  47 H :    0.114715
  48 H :    0.154223
Sum of atomic charges:   -0.0000000

LOEWDIN ATOMIC CHARGES
----------------------
   0 C :   -0.158402
   1 C :   -0.104580
   2 C :   -0.081227
   3 C :   -0.145412
   4 C :   -0.133393
   5 C :   -0.142223
   6 C :   -0.041472
   7 C :   -0.144138
   8 N :    0.200021
   9 C :   -0.130848
  10 C :   -0.142433
  11 C :   -0.127040
  12 C :   -0.109665
  13 H :    0.145587
  14 H :    0.192859
  15 H :    0.145978
  16 H :    0.154793
  17 H :    0.142931
  18 H :    0.144560
  19 H :    0.144097
  20 N :    0.155915
  21 C :   -0.291178
  22 C :   -0.337898
  23 S :    0.729882
  24 C :   -0.361301
  25 C :   -0.391301
  26 S :    0.747033
  27 C :   -0.324961
  28 C :   -0.234015
  29 N :    0.106436
  30 H :    0.140128
  31 H :    0.147329
  32 C :   -0.187470
  33 N :    0.172547
  34 C :   -0.166180
  35 C :   -0.117914
  36 N :    0.198567
  37 C :   -0.183044
  38 C :   -0.049962
  39 C :   -0.262731
  40 C :   -0.225840
  41 C :   -0.077771
  42 N :   -0.081059
  43 S :    0.549468
  44 N :   -0.062901
  45 H :    0.146516
  46 H :    0.145222
  47 H :    0.143366
  48 H :    0.163125

  Mayer bond orders larger than 0.1
B(  0-C ,  1-C ) :   1.5337 B(  0-C ,  5-C ) :   1.3577 B(  0-C , 19-H ) :   0.9845
B(  1-C ,  2-C ) :   1.2882 B(  1-C , 16-H ) :   0.9180 B(  2-C ,  3-C ) :   1.3747
B(  2-C ,  6-C ) :   1.0623 B(  3-C ,  4-C ) :   1.3079 B(  3-C ,  8-N ) :   1.1199
B(  4-C ,  5-C ) :   1.4843 B(  4-C , 17-H ) :   0.9763 B(  5-C , 18-H ) :   0.9818
B(  6-C ,  7-C ) :   1.3363 B(  6-C , 12-C ) :   1.2259 B(  7-C ,  8-N ) :   1.1493
B(  7-C ,  9-C ) :   1.2879 B(  8-N , 14-H ) :   0.9127 B(  9-C , 10-C ) :   1.4655
B(  9-C , 47-H ) :   0.9752 B( 10-C , 11-C ) :   1.4010 B( 10-C , 15-H ) :   0.9840
B( 11-C , 12-C ) :   1.4345 B( 11-C , 13-H ) :   0.9615 B( 12-C , 27-C ) :   0.8312
B( 20-N , 21-C ) :   1.2487 B( 20-N , 24-C ) :   1.6490 B( 21-C , 22-C ) :   1.6484
B( 21-C , 25-C ) :   0.9876 B( 22-C , 23-S ) :   1.3083 B( 22-C , 30-H ) :   0.9154
B( 23-S , 24-C ) :   1.2936 B( 24-C , 41-C ) :   1.0040 B( 25-C , 26-S ) :   1.3337
B( 25-C , 29-N ) :   1.6260 B( 26-S , 27-C ) :   1.2641 B( 27-C , 28-C ) :   1.5802
B( 28-C , 29-N ) :   1.3161 B( 28-C , 31-H ) :   0.9747 B( 32-C , 33-N ) :   1.7332
B( 32-C , 37-C ) :   1.1198 B( 32-C , 46-H ) :   0.9601 B( 33-N , 34-C ) :   1.1573
B( 34-C , 35-C ) :   1.1622 B( 34-C , 38-C ) :   1.5064 B( 35-C , 36-N ) :   1.2673
B( 35-C , 41-C ) :   1.3805 B( 36-N , 37-C ) :   1.7530 B( 36-N , 41-C ) :  -0.1043
B( 37-C , 45-H ) :   0.9613 B( 38-C , 39-C ) :   1.1939 B( 38-C , 48-H ) :   0.9693
B( 39-C , 40-C ) :   1.0602 B( 39-C , 44-N ) :   1.6526 B( 40-C , 41-C ) :   1.0824
B( 40-C , 42-N ) :   1.5813 B( 42-N , 43-S ) :   1.1269 B( 42-N , 44-N ) :   0.1387
B( 43-S , 44-N ) :   1.1562

Dispersion correction           -0.024514793
FINAL SINGLE POINT ENERGY     -2576.475430150429

DIPOLE MOMENT
-------------
                                X             Y             Z
Electronic contribution:    -37.14946      11.30500      -2.63706
Nuclear contribution   :     37.84815     -12.65164       2.84197
                        -----------------------------------------
Total Dipole Moment    :      0.69870      -1.34664       0.20491
                        -----------------------------------------
Magnitude (a.u.)       :      1.53089
Magnitude (Debye)      :      3.89120

                             ****ORCA TERMINATED NORMALLY****
TOTAL RUN TIME: 0 days 0 hours 17 minutes 10 seconds 312 msec
